  python dir          : /gpfs/pace1/project/chbe-medford/medford-share/gits/frozen/ben_espresso_8_24_2017/espresso
  espresso dir        : /nv/hp22/amedford6/medford-shared/builds/espresso/5.1.r11289-pybeef/intel-16.0+mvapich2-2.2+mkl-11.3/espresso-5.1.r11289-pybeef/bin
  pseudo dir          : /gpfs/pace1/project/chbe-medford/medford-share/data/pseudos/SSSP_eff_PBE
  ase-espresso py git : GITVERSION



     Program PWSCF v.5.1rc2 starts on  6Apr2019 at 22:22:16 

     This program is part of the open-source Quantum ESPRESSO suite
     for quantum simulation of materials; please cite
         "P. Giannozzi et al., J. Phys.:Condens. Matter 21 395502 (2009);
          URL http://www.quantum-espresso.org", 
     in publications or presentations arising from this work. More details at
     http://www.quantum-espresso.org/quote

     Parallel version (MPI), running on    12 processors
     R & G space division:  proc/nbgrp/npool/nimage =      12
     Reading input from pw.inp
     Message from routine read_cards :
     DEPRECATED: no units specified in CELL_PARAMETERS card

     Current dimensions of program PWSCF are:
     Max number of different atomic species (ntypx) = 10
     Max number of k-points (npk) =  40000
     Max angular momentum in pseudopotentials (lmaxx) =  3

     IMPORTANT: XC functional enforced from input :
     Exchange-correlation      = PBE ( 1  4  3  4 0)
     Any further DFT definition will be discarded
     Please, verify this is what you really want


     Subspace diagonalization in iterative solution of the eigenvalue problem:
     a serial algorithm will be used

 
     Parallelization info
     --------------------
     sticks:   dense  smooth     PW     G-vecs:    dense   smooth      PW
     Min         902     442    116               195054    66674    9022
     Max         903     443    117               195063    66696    9033
     Sum       10831    5305   1393              2340703   800183  108285
 


     bravais-lattice index     =            0
     lattice parameter (alat)  =       1.8897  a.u.
     unit-cell volume          =   23043.4067 (a.u.)^3
     number of atoms/cell      =           56
     number of atomic types    =            4
     number of electrons       =       690.00
     number of Kohn-Sham states=          355
     kinetic-energy cutoff     =      40.4243  Ry
     charge density cutoff     =     330.7439  Ry
     convergence threshold     =      3.7E-07
     mixing beta               =       0.0750
     number of iterations used =            8  local-TF  mixing
     Exchange-correlation      = PBE ( 1  4  3  4 0)
     nstep                     =           50


     celldm(1)=   1.889726  celldm(2)=   0.000000  celldm(3)=   0.000000
     celldm(4)=   0.000000  celldm(5)=   0.000000  celldm(6)=   0.000000

     crystal axes: (cart. coord. in units of alat)
               a(1) = (  11.534892   0.000000   0.000000 )  
               a(2) = (  -5.767446   9.989509   0.000000 )  
               a(3) = (   0.000000   0.000000  29.634147 )  

     reciprocal axes: (cart. coord. in units 2 pi/alat)
               b(1) = (  0.086693  0.050053  0.000000 )  
               b(2) = (  0.000000  0.100105  0.000000 )  
               b(3) = (  0.000000  0.000000  0.033745 )  


     PseudoPot. # 1 for Au read from file:
     /gpfs/pace1/project/chbe-medford/medford-share/data/pseudos/SSSP_eff_PBE/Au.UPF
     MD5 check sum: 1009843a674e36925f098327e430af60
     Pseudo is Norm-conserving, Zval = 19.0
     Generated using ONCVPSP code by D. R. Hamann
     Using radial grid of  602 points,  8 beta functions with: 
                l(1) =   0
                l(2) =   0
                l(3) =   1
                l(4) =   1
                l(5) =   2
                l(6) =   2
                l(7) =   3
                l(8) =   3

     PseudoPot. # 2 for O  read from file:
     /gpfs/pace1/project/chbe-medford/medford-share/data/pseudos/SSSP_eff_PBE/O.UPF
     MD5 check sum: 734c27235a0248c51dbae37a1fbe46ec
     Pseudo is Ultrasoft + core correction, Zval =  6.0
     Generated by new atomic code, or converted to UPF format
     Using radial grid of  737 points,  5 beta functions with: 
                l(1) =   0
                l(2) =   0
                l(3) =   1
                l(4) =   1
                l(5) =   2
     Q(r) pseudized with  8 coefficients,  rinner =    0.900   0.900   0.900
                                                       0.900   0.900

     PseudoPot. # 3 for C  read from file:
     /gpfs/pace1/project/chbe-medford/medford-share/data/pseudos/SSSP_eff_PBE/C.UPF
     MD5 check sum: d1aef80898a10debaa0f26306b886e00
     Pseudo is Ultrasoft + core correction, Zval =  4.0
     Generated by new atomic code, or converted to UPF format
     Using radial grid of  721 points,  4 beta functions with: 
                l(1) =   0
                l(2) =   0
                l(3) =   1
                l(4) =   1
     Q(r) pseudized with  8 coefficients,  rinner =    1.100   1.100   1.100


     PseudoPot. # 4 for  H read from file:
     /gpfs/pace1/project/chbe-medford/medford-share/data/pseudos/SSSP_eff_PBE/H.UPF
     MD5 check sum: 36633979392af7100e6f6632747262d3
     Pseudo is Ultrasoft, Zval =  1.0
     Generated using "atomic" code by A. Dal Corso  v.5.0.99 svn rev. 10869
     Using radial grid of  929 points,  2 beta functions with: 
                l(1) =   0
                l(2) =   0
     Q(r) pseudized with 0 coefficients 


     atomic species   valence    mass     pseudopotential
        Au1           19.00   196.96650     Au( 1.00)
        O1             6.00    15.99940     O ( 1.00)
        C1             4.00    12.01100     C ( 1.00)
        H1             1.00     1.00794      H( 1.00)

     No symmetry found



   Cartesian axes

     site n.     atom                  positions (alat units)
         1           Au1 tau(   1) = (   0.0000000   0.0000000  10.0000000  )
         2           Au1 tau(   2) = (   1.4418614   0.8324591  12.3545499  )
         3           Au1 tau(   3) = (  -1.4418614   2.4973773  10.0000000  )
         4           Au1 tau(   4) = (   0.0000000   3.3298364  12.3545499  )
         5           Au1 tau(   5) = (  -2.8837229   4.9947545  10.0000000  )
         6           Au1 tau(   6) = (  -1.4418614   5.8272136  12.3545499  )
         7           Au1 tau(   7) = (  -4.3255843   7.4921318  10.0000000  )
         8           Au1 tau(   8) = (  -2.8837229   8.3245909  12.3545499  )
         9           Au1 tau(   9) = (   2.8837229   0.0000000  10.0000000  )
        10           Au1 tau(  10) = (   4.3255843   0.8324591  12.3545499  )
        11           Au1 tau(  11) = (   1.4418614   2.4973773  10.0000000  )
        12           Au1 tau(  12) = (   2.8837229   3.3298364  12.3545499  )
        13           Au1 tau(  13) = (   0.0000000   4.9947545  10.0000000  )
        14           Au1 tau(  14) = (   1.4418614   5.8272136  12.3545499  )
        15           Au1 tau(  15) = (  -1.4418614   7.4921318  10.0000000  )
        16           Au1 tau(  16) = (   0.0000000   8.3245909  12.3545499  )
        17           Au1 tau(  17) = (   5.7674458   0.0000000  10.0000000  )
        18           Au1 tau(  18) = (   7.2093072   0.8324591  12.3545499  )
        19           Au1 tau(  19) = (   4.3255843   2.4973773  10.0000000  )
        20           Au1 tau(  20) = (   5.7674458   3.3298364  12.3545499  )
        21           Au1 tau(  21) = (   2.8837229   4.9947545  10.0000000  )
        22           Au1 tau(  22) = (   4.3255843   5.8272136  12.3545499  )
        23           Au1 tau(  23) = (   1.4418614   7.4921318  10.0000000  )
        24           Au1 tau(  24) = (   2.8837229   8.3245909  12.3545499  )
        25           Au1 tau(  25) = (   8.6511686   0.0000000  10.0000000  )
        26           Au1 tau(  26) = (  10.0930301   0.8324591  12.3545499  )
        27           Au1 tau(  27) = (   7.2093072   2.4973773  10.0000000  )
        28           Au1 tau(  28) = (   8.6511686   3.3298364  12.3545499  )
        29           Au1 tau(  29) = (   5.7674458   4.9947545  10.0000000  )
        30           Au1 tau(  30) = (   7.2093072   5.8272136  12.3545499  )
        31           Au1 tau(  31) = (   4.3255843   7.4921318  10.0000000  )
        32           Au1 tau(  32) = (   5.7674458   8.3245909  12.3545499  )
        33           O1  tau(  33) = (   6.1221000   2.1172590  19.2391167  )
        34           O1  tau(  34) = (   6.2782000   4.6167810  18.2245663  )
        35           O1  tau(  35) = (   4.0061000   0.4869676  19.0135652  )
        36           O1  tau(  36) = (   3.5138000   5.0349746  17.6327729  )
        37           O1  tau(  37) = (   4.6313000   0.9899736  15.6185646  )
        38           O1  tau(  38) = (   5.7670000   4.9950000  14.8545499  )
        39           O1  tau(  39) = (   0.0708542   9.7814776  17.1146943  )
        40           O1  tau(  40) = (   4.7627000   6.7179924  15.9449856  )
        41           C1  tau(  41) = (   4.9808000   2.6054892  18.5153201  )
        42           C1  tau(  42) = (   5.4918000   3.6540275  17.5083178  )
        43           C1  tau(  43) = (   4.2163000   1.4068977  17.9392084  )
        44           C1  tau(  44) = (   4.4244000   4.4336065  16.7262369  )
        45           C1  tau(  45) = (   4.9891000   0.6425050  16.8791351  )
        46           C1  tau(  46) = (   4.9894000   5.5215640  15.8337585  )
        47           H1  tau(  47) = (   4.3547000   3.0885570  19.2755524  )
        48           H1  tau(  48) = (   6.1911000   3.1795597  16.8107973  )
        49           H1  tau(  49) = (   3.2389000   1.7066897  17.5477061  )
        50           H1  tau(  50) = (   3.8450000   3.7492121  16.0965051  )
        51           H1  tau(  51) = (   6.5676000   2.8861628  19.6341465  )
        52           H1  tau(  52) = (   5.6882000   5.0699983  18.8511833  )
        53           H1  tau(  53) = (  -2.3551458   9.7786815  18.6869080  )
        54           H1  tau(  54) = (   2.7763000   5.3972827  17.1126573  )
        55           H1  tau(  55) = (   5.1340000   0.4866879  14.9430252  )
        56           H1  tau(  56) = (   6.1273000   5.6878596  14.2608886  )

     number of k points=    10  Fermi-Dirac smearing, width (Ry)=  0.0073
                       cart. coord. in units 2pi/alat
        k(    1) = (   0.0000000   0.0000000   0.0000000), wk =   0.1250000
        k(    2) = (   0.0000000   0.0250263   0.0000000), wk =   0.2500000
        k(    3) = (   0.0000000  -0.0500525   0.0000000), wk =   0.1250000
        k(    4) = (   0.0216734   0.0375394   0.0000000), wk =   0.2500000
        k(    5) = (  -0.0216734   0.0125131   0.0000000), wk =   0.2500000
        k(    6) = (   0.0216734   0.0125131   0.0000000), wk =   0.2500000
        k(    7) = (   0.0433467  -0.0250263   0.0000000), wk =   0.1250000
        k(    8) = (  -0.0433467  -0.0250263   0.0000000), wk =   0.1250000
        k(    9) = (  -0.0216734   0.0375394   0.0000000), wk =   0.2500000
        k(   10) = (   0.0433467   0.0000000   0.0000000), wk =   0.2500000

     Dense  grid:  2340703 G-vectors     FFT dimensions: ( 128, 128, 360)

     Smooth grid:   800183 G-vectors     FFT dimensions: (  90,  90, 240)

     Largest allocated arrays     est. size (Mb)     dimensions
        Kohn-Sham Wavefunctions        45.38 Mb     (    8377,  355)
        NL pseudopotentials           152.88 Mb     (    8377, 1196)
        Each V/rho on FFT grid          7.50 Mb     (  491520)
        Each G-vector array             1.49 Mb     (  195061)
        G-vector shells                 0.46 Mb     (   59788)
     Largest temporary arrays     est. size (Mb)     dimensions
        Auxiliary wavefunctions       181.51 Mb     (    8377, 1420)
        Each subspace H/S matrix       30.77 Mb     (    1420, 1420)
        Each <psi_i|beta_j> matrix      6.48 Mb     (    1196,  355)
        Arrays for rho mixing          60.00 Mb     (  491520,    8)

     Initial potential from superposition of free atoms
     Check: negative starting charge=   -0.002233

     starting charge  689.28099, renormalised to  690.00000

     negative rho (up, down):  2.235E-03 0.000E+00
     Starting wfc are   66 randomized atomic wfcs +  289 random wfc

     total cpu time spent up to now is      132.7 secs

     per-process dynamical memory:   809.8 Mb

     Self-consistent Calculation

     iteration #  1     ecut=    40.42 Ry     beta=0.07
     Davidson diagonalization with overlap
     ethr =  1.00E-02,  avg # of iterations = 11.7

     Threshold (ethr) on eigenvalues was too large:
     Diagonalizing with lowered threshold

     Davidson diagonalization with overlap
     ethr =  4.07E-04,  avg # of iterations =  1.7

     negative rho (up, down):  4.001E-04 0.000E+00

     total cpu time spent up to now is     1975.9 secs

     total energy              =   -9130.27231155 Ry
     Harris-Foulkes estimate   =   -9130.39775770 Ry
     estimated scf accuracy    <       2.81459819 Ry

     iteration #  2     ecut=    40.42 Ry     beta=0.07
     Davidson diagonalization with overlap
     ethr =  4.08E-04,  avg # of iterations =  1.0

     negative rho (up, down):  3.705E-04 0.000E+00

     total cpu time spent up to now is     2316.3 secs

     total energy              =   -9129.22222887 Ry
     Harris-Foulkes estimate   =   -9130.27949668 Ry
     estimated scf accuracy    <       2.43203031 Ry

     iteration #  3     ecut=    40.42 Ry     beta=0.07
     Davidson diagonalization with overlap
     ethr =  3.52E-04,  avg # of iterations =  5.8

     negative rho (up, down):  2.299E-04 0.000E+00

     total cpu time spent up to now is     2746.6 secs

     total energy              =   -9129.62876675 Ry
     Harris-Foulkes estimate   =   -9129.63742637 Ry
     estimated scf accuracy    <       0.35986479 Ry

     iteration #  4     ecut=    40.42 Ry     beta=0.07
     Davidson diagonalization with overlap
     ethr =  5.22E-05,  avg # of iterations =  2.0

     negative rho (up, down):  1.592E-04 0.000E+00

     total cpu time spent up to now is     3095.6 secs

     total energy              =   -9129.51839950 Ry
     Harris-Foulkes estimate   =   -9129.63179620 Ry
     estimated scf accuracy    <       0.33475428 Ry

     iteration #  5     ecut=    40.42 Ry     beta=0.07
     Davidson diagonalization with overlap
     ethr =  4.85E-05,  avg # of iterations =  3.0

     negative rho (up, down):  1.107E-04 0.000E+00

     total cpu time spent up to now is     3485.5 secs

     total energy              =   -9129.55020914 Ry
     Harris-Foulkes estimate   =   -9129.55257068 Ry
     estimated scf accuracy    <       0.07259095 Ry

     iteration #  6     ecut=    40.42 Ry     beta=0.07
     Davidson diagonalization with overlap
     ethr =  1.05E-05,  avg # of iterations =  3.8

     negative rho (up, down):  3.880E-05 0.000E+00

     total cpu time spent up to now is     3850.1 secs

     total energy              =   -9129.53595574 Ry
     Harris-Foulkes estimate   =   -9129.55068871 Ry
     estimated scf accuracy    <       0.06725623 Ry

     iteration #  7     ecut=    40.42 Ry     beta=0.07
     Davidson diagonalization with overlap
     ethr =  9.75E-06,  avg # of iterations =  4.0

     negative rho (up, down):  5.500E-05 0.000E+00

     total cpu time spent up to now is     4253.0 secs

     total energy              =   -9129.53578337 Ry
     Harris-Foulkes estimate   =   -9129.54401381 Ry
     estimated scf accuracy    <       0.05691458 Ry

     iteration #  8     ecut=    40.42 Ry     beta=0.07
     Davidson diagonalization with overlap
     ethr =  8.25E-06,  avg # of iterations =  3.0

     negative rho (up, down):  2.382E-04 0.000E+00

     total cpu time spent up to now is     4628.3 secs

     total energy              =   -9129.53135990 Ry
     Harris-Foulkes estimate   =   -9129.53751256 Ry
     estimated scf accuracy    <       0.03519501 Ry

     iteration #  9     ecut=    40.42 Ry     beta=0.07
     Davidson diagonalization with overlap
     ethr =  5.10E-06,  avg # of iterations =  2.0

     negative rho (up, down):  6.700E-03 0.000E+00

     total cpu time spent up to now is     4983.6 secs

     total energy              =   -9129.53052987 Ry
     Harris-Foulkes estimate   =   -9129.53209814 Ry
     estimated scf accuracy    <       0.02165699 Ry

     iteration # 10     ecut=    40.42 Ry     beta=0.07
     Davidson diagonalization with overlap
     ethr =  3.14E-06,  avg # of iterations =  4.0

     negative rho (up, down):  2.386E-02 0.000E+00

     total cpu time spent up to now is     5372.7 secs

     total energy              =   -9129.52946202 Ry
     Harris-Foulkes estimate   =   -9129.53140165 Ry
     estimated scf accuracy    <       0.01768097 Ry

     iteration # 11     ecut=    40.42 Ry     beta=0.07
     Davidson diagonalization with overlap
     ethr =  2.56E-06,  avg # of iterations =  5.0

     negative rho (up, down):  8.136E-02 0.000E+00

     total cpu time spent up to now is     5773.7 secs

     total energy              =   -9129.52980591 Ry
     Harris-Foulkes estimate   =   -9129.53038306 Ry
     estimated scf accuracy    <       0.01124466 Ry

     iteration # 12     ecut=    40.42 Ry     beta=0.07
     Davidson diagonalization with overlap
     ethr =  1.63E-06,  avg # of iterations =  4.0

     negative rho (up, down):  7.884E-02 0.000E+00

     total cpu time spent up to now is     6168.7 secs

     total energy              =   -9129.53001934 Ry
     Harris-Foulkes estimate   =   -9129.53036541 Ry
     estimated scf accuracy    <       0.00812471 Ry

     iteration # 13     ecut=    40.42 Ry     beta=0.07
     Davidson diagonalization with overlap
     ethr =  1.18E-06,  avg # of iterations =  3.3

     negative rho (up, down):  9.238E-02 0.000E+00

     total cpu time spent up to now is     6561.8 secs

     total energy              =   -9129.52833428 Ry
     Harris-Foulkes estimate   =   -9129.53058717 Ry
     estimated scf accuracy    <       0.01022859 Ry

     iteration # 14     ecut=    40.42 Ry     beta=0.07
     Davidson diagonalization with overlap
     ethr =  1.18E-06,  avg # of iterations =  3.0

     negative rho (up, down):  8.549E-02 0.000E+00

     total cpu time spent up to now is     6952.4 secs

     total energy              =   -9129.52831542 Ry
     Harris-Foulkes estimate   =   -9129.52889038 Ry
     estimated scf accuracy    <       0.00412442 Ry

     iteration # 15     ecut=    40.42 Ry     beta=0.07
     Davidson diagonalization with overlap
     ethr =  5.98E-07,  avg # of iterations =  3.7

     negative rho (up, down):  6.090E-02 0.000E+00

     total cpu time spent up to now is     7354.5 secs

     total energy              =   -9129.52736042 Ry
     Harris-Foulkes estimate   =   -9129.52865560 Ry
     estimated scf accuracy    <       0.00307000 Ry

     iteration # 16     ecut=    40.42 Ry     beta=0.07
     Davidson diagonalization with overlap
     ethr =  4.45E-07,  avg # of iterations =  3.0

     negative rho (up, down):  6.101E-02 0.000E+00

     total cpu time spent up to now is     7759.5 secs

     total energy              =   -9129.52766580 Ry
     Harris-Foulkes estimate   =   -9129.52767364 Ry
     estimated scf accuracy    <       0.00113446 Ry

     iteration # 17     ecut=    40.42 Ry     beta=0.07
     Davidson diagonalization with overlap
     ethr =  1.64E-07,  avg # of iterations =  2.0

     negative rho (up, down):  3.244E-02 0.000E+00

     total cpu time spent up to now is     8126.6 secs

     total energy              =   -9129.52686817 Ry
     Harris-Foulkes estimate   =   -9129.52767682 Ry
     estimated scf accuracy    <       0.00103143 Ry

     iteration # 18     ecut=    40.42 Ry     beta=0.07
     Davidson diagonalization with overlap
     ethr =  1.49E-07,  avg # of iterations =  3.0

     negative rho (up, down):  3.005E-02 0.000E+00

     total cpu time spent up to now is     8523.5 secs

     total energy              =   -9129.52678011 Ry
     Harris-Foulkes estimate   =   -9129.52696009 Ry
     estimated scf accuracy    <       0.00052166 Ry

     iteration # 19     ecut=    40.42 Ry     beta=0.07
     Davidson diagonalization with overlap
     ethr =  7.56E-08,  avg # of iterations =  2.0

     negative rho (up, down):  2.739E-02 0.000E+00

     total cpu time spent up to now is     8888.9 secs

     total energy              =   -9129.52671138 Ry
     Harris-Foulkes estimate   =   -9129.52678567 Ry
     estimated scf accuracy    <       0.00045756 Ry

     iteration # 20     ecut=    40.42 Ry     beta=0.07
     Davidson diagonalization with overlap
     ethr =  6.63E-08,  avg # of iterations =  2.7

     negative rho (up, down):  2.499E-02 0.000E+00

     total cpu time spent up to now is     9276.7 secs

     total energy              =   -9129.52668920 Ry
     Harris-Foulkes estimate   =   -9129.52672320 Ry
     estimated scf accuracy    <       0.00038310 Ry

     iteration # 21     ecut=    40.42 Ry     beta=0.07
     Davidson diagonalization with overlap
     ethr =  5.55E-08,  avg # of iterations =  2.0

     negative rho (up, down):  2.337E-02 0.000E+00

     total cpu time spent up to now is     9665.5 secs

     total energy              =   -9129.52664002 Ry
     Harris-Foulkes estimate   =   -9129.52670258 Ry
     estimated scf accuracy    <       0.00028690 Ry

     iteration # 22     ecut=    40.42 Ry     beta=0.07
     Davidson diagonalization with overlap
     ethr =  4.16E-08,  avg # of iterations =  3.0

     negative rho (up, down):  2.007E-02 0.000E+00

     total cpu time spent up to now is    10059.6 secs

     total energy              =   -9129.52651457 Ry
     Harris-Foulkes estimate   =   -9129.52665384 Ry
     estimated scf accuracy    <       0.00027974 Ry

     iteration # 23     ecut=    40.42 Ry     beta=0.07
     Davidson diagonalization with overlap
     ethr =  4.05E-08,  avg # of iterations =  3.0

     negative rho (up, down):  2.080E-02 0.000E+00

     total cpu time spent up to now is    10453.6 secs

     total energy              =   -9129.52652137 Ry
     Harris-Foulkes estimate   =   -9129.52652691 Ry
     estimated scf accuracy    <       0.00014090 Ry

     iteration # 24     ecut=    40.42 Ry     beta=0.07
     Davidson diagonalization with overlap
     ethr =  2.04E-08,  avg # of iterations =  2.0

     negative rho (up, down):  2.038E-02 0.000E+00

     total cpu time spent up to now is    10822.7 secs

     total energy              =   -9129.52651908 Ry
     Harris-Foulkes estimate   =   -9129.52652342 Ry
     estimated scf accuracy    <       0.00011990 Ry

     iteration # 25     ecut=    40.42 Ry     beta=0.07
     Davidson diagonalization with overlap
     ethr =  1.74E-08,  avg # of iterations =  1.6

     negative rho (up, down):  1.721E-02 0.000E+00

     total cpu time spent up to now is    11186.4 secs

     total energy              =   -9129.52647657 Ry
     Harris-Foulkes estimate   =   -9129.52652016 Ry
     estimated scf accuracy    <       0.00011265 Ry

     iteration # 26     ecut=    40.42 Ry     beta=0.07
     Davidson diagonalization with overlap
     ethr =  1.63E-08,  avg # of iterations =  2.6

     negative rho (up, down):  1.547E-02 0.000E+00

     total cpu time spent up to now is    11566.8 secs

     total energy              =   -9129.52641913 Ry
     Harris-Foulkes estimate   =   -9129.52647990 Ry
     estimated scf accuracy    <       0.00008869 Ry

     iteration # 27     ecut=    40.42 Ry     beta=0.07
     Davidson diagonalization with overlap
     ethr =  1.29E-08,  avg # of iterations =  2.4

     negative rho (up, down):  1.420E-02 0.000E+00

     total cpu time spent up to now is    11944.1 secs

     total energy              =   -9129.52638300 Ry
     Harris-Foulkes estimate   =   -9129.52642126 Ry
     estimated scf accuracy    <       0.00006657 Ry

     iteration # 28     ecut=    40.42 Ry     beta=0.07
     Davidson diagonalization with overlap
     ethr =  9.65E-09,  avg # of iterations =  3.1

     negative rho (up, down):  1.051E-02 0.000E+00

     total cpu time spent up to now is    12348.8 secs

     total energy              =   -9129.52634822 Ry
     Harris-Foulkes estimate   =   -9129.52638712 Ry
     estimated scf accuracy    <       0.00005671 Ry

     iteration # 29     ecut=    40.42 Ry     beta=0.07
     Davidson diagonalization with overlap
     ethr =  8.22E-09,  avg # of iterations =  3.0

     negative rho (up, down):  8.485E-03 0.000E+00

     total cpu time spent up to now is    12744.7 secs

     total energy              =   -9129.52632300 Ry
     Harris-Foulkes estimate   =   -9129.52635098 Ry
     estimated scf accuracy    <       0.00004097 Ry

     iteration # 30     ecut=    40.42 Ry     beta=0.07
     Davidson diagonalization with overlap
     ethr =  5.94E-09,  avg # of iterations =  2.9

     negative rho (up, down):  8.286E-03 0.000E+00

     total cpu time spent up to now is    13139.9 secs

     total energy              =   -9129.52632543 Ry
     Harris-Foulkes estimate   =   -9129.52632529 Ry
     estimated scf accuracy    <       0.00003012 Ry

     iteration # 31     ecut=    40.42 Ry     beta=0.07
     Davidson diagonalization with overlap
     ethr =  4.37E-09,  avg # of iterations =  2.0

     negative rho (up, down):  6.671E-03 0.000E+00

     total cpu time spent up to now is    13510.3 secs

     total energy              =   -9129.52631767 Ry
     Harris-Foulkes estimate   =   -9129.52632582 Ry
     estimated scf accuracy    <       0.00002594 Ry

     iteration # 32     ecut=    40.42 Ry     beta=0.07
     Davidson diagonalization with overlap
     ethr =  3.76E-09,  avg # of iterations =  3.0

     negative rho (up, down):  5.789E-03 0.000E+00

     total cpu time spent up to now is    13914.3 secs

     total energy              =   -9129.52630734 Ry
     Harris-Foulkes estimate   =   -9129.52631969 Ry
     estimated scf accuracy    <       0.00001581 Ry

     iteration # 33     ecut=    40.42 Ry     beta=0.07
     Davidson diagonalization with overlap
     ethr =  2.29E-09,  avg # of iterations =  3.0

     negative rho (up, down):  5.196E-03 0.000E+00

     total cpu time spent up to now is    14330.5 secs

     total energy              =   -9129.52630740 Ry
     Harris-Foulkes estimate   =   -9129.52630919 Ry
     estimated scf accuracy    <       0.00000554 Ry

     iteration # 34     ecut=    40.42 Ry     beta=0.07
     Davidson diagonalization with overlap
     ethr =  8.03E-10,  avg # of iterations =  3.1

     negative rho (up, down):  4.924E-03 0.000E+00

     total cpu time spent up to now is    14741.8 secs

     total energy              =   -9129.52630760 Ry
     Harris-Foulkes estimate   =   -9129.52630787 Ry
     estimated scf accuracy    <       0.00000338 Ry

     iteration # 35     ecut=    40.42 Ry     beta=0.07
     Davidson diagonalization with overlap
     ethr =  4.90E-10,  avg # of iterations =  3.0

     negative rho (up, down):  4.850E-03 0.000E+00

     total cpu time spent up to now is    15143.6 secs

     total energy              =   -9129.52630799 Ry
     Harris-Foulkes estimate   =   -9129.52630778 Ry
     estimated scf accuracy    <       0.00000165 Ry

     iteration # 36     ecut=    40.42 Ry     beta=0.07
     Davidson diagonalization with overlap
     ethr =  2.38E-10,  avg # of iterations =  2.7

     negative rho (up, down):  4.744E-03 0.000E+00

     total cpu time spent up to now is    15520.3 secs

     total energy              =   -9129.52630835 Ry
     Harris-Foulkes estimate   =   -9129.52630802 Ry
     estimated scf accuracy    <       0.00000122 Ry

     iteration # 37     ecut=    40.42 Ry     beta=0.07
     Davidson diagonalization with overlap
     ethr =  1.77E-10,  avg # of iterations =  2.6

     negative rho (up, down):  4.574E-03 0.000E+00

     total cpu time spent up to now is    15909.7 secs

     total energy              =   -9129.52630886 Ry
     Harris-Foulkes estimate   =   -9129.52630839 Ry
     estimated scf accuracy    <       0.00000091 Ry

     iteration # 38     ecut=    40.42 Ry     beta=0.07
     Davidson diagonalization with overlap
     ethr =  1.32E-10,  avg # of iterations =  3.5

     negative rho (up, down):  4.468E-03 0.000E+00

     total cpu time spent up to now is    16323.0 secs

     total energy              =   -9129.52630931 Ry
     Harris-Foulkes estimate   =   -9129.52630893 Ry
     estimated scf accuracy    <       0.00000072 Ry

     iteration # 39     ecut=    40.42 Ry     beta=0.07
     Davidson diagonalization with overlap
     ethr =  1.05E-10,  avg # of iterations =  3.0

     negative rho (up, down):  5.000E-03 0.000E+00

     total cpu time spent up to now is    16724.0 secs

     End of self-consistent calculation

          k = 0.0000 0.0000 0.0000 ( 99965 PWs)   bands (ev):

  -106.2871-106.1842-106.1782-106.1505-106.1486-106.1483-106.1429-106.1415
  -106.1404-106.1398-106.1390-106.1377-106.1370-106.1363-106.1360-106.1351
  -106.1347-106.1338-106.1330-106.1329-106.1321-106.1314-106.1311-106.1309
  -106.1301-106.1296-106.1293-106.1287-106.1268-106.1256-106.1253-106.1164
   -57.6553 -57.6394 -57.5849 -57.5812 -57.5747 -57.5695 -57.5677 -57.5649
   -57.5572 -57.5529 -57.5473 -57.5463 -57.5428 -57.5411 -57.5403 -57.5388
   -57.5381 -57.5374 -57.5319 -57.5221 -57.5161 -57.5070 -57.5022 -57.4973
   -57.4957 -57.4936 -57.4897 -57.4878 -57.4877 -57.4867 -57.4847 -57.4838
   -57.4826 -57.4822 -57.4803 -57.4786 -57.4764 -57.4722 -57.4694 -57.4685
   -57.4681 -57.4669 -57.4650 -57.4641 -57.4582 -57.4564 -57.4457 -57.4424
   -57.4375 -57.4357 -57.4338 -57.4318 -57.4311 -57.4300 -57.4298 -57.4173
   -57.4163 -57.4151 -57.4133 -57.4113 -57.4109 -57.4101 -57.4082 -57.4064
   -57.4033 -57.3928 -57.3917 -57.3907 -57.3815 -57.3799 -57.3783 -57.3705
   -57.3644 -57.3556 -57.3525 -57.3514 -57.3466 -57.3454 -57.3438 -57.3402
   -57.3325 -57.3236 -57.3200 -57.3150 -57.3135 -57.3108 -57.3097 -57.3080
   -57.3066 -57.3040 -57.3027 -57.3010 -57.2984 -57.2979 -57.2940 -57.2899
   -23.6468 -23.3907 -22.1163 -21.6745 -21.4628 -21.1590 -20.8322 -20.6940
   -15.4531 -14.5224 -13.0287 -11.9346 -11.1911 -10.3316  -9.3919  -9.2224
    -9.0488  -8.6815  -8.4336  -7.9357  -7.7649  -7.7281  -7.6942  -7.6847
    -7.6806  -7.6788  -7.6763  -7.6428  -7.5666  -7.2395  -7.1330  -7.0921
    -7.0858  -7.0836  -7.0530  -7.0508  -7.0432  -6.8002  -6.6578  -6.6349
    -6.6292  -6.6242  -6.6225  -6.6201  -6.5032  -6.4598  -6.4523  -6.4328
    -6.4086  -6.4022  -6.3996  -6.3972  -6.3944  -6.3765  -6.0348  -6.0068
    -6.0020  -5.9941  -5.9936  -5.9892  -5.9881  -5.9841  -5.9825  -5.9814
    -5.9797  -5.9792  -5.9637  -5.7928  -5.7590  -5.7525  -5.7512  -5.7498
    -5.7477  -5.7272  -5.6340  -5.3506  -5.3478  -5.3402  -5.2456  -5.2362
    -5.2197  -5.2167  -5.2156  -5.2118  -5.2115  -5.1598  -5.0693  -5.0581
    -5.0518  -5.0448  -5.0442  -5.0421  -5.0200  -5.0182  -4.9780  -4.9642
    -4.9626  -4.9573  -4.9538  -4.9491  -4.8965  -4.8961  -4.8080  -4.8016
    -4.7983  -4.7926  -4.7905  -4.7867  -4.7679  -4.7546  -4.7518  -4.7490
    -4.7470  -4.7415  -4.6537  -4.5510  -4.5488  -4.5408  -4.5397  -4.5347
    -4.5333  -4.5248  -4.5217  -4.5194  -4.5180  -4.5162  -4.5149  -4.4598
    -4.4562  -4.4490  -4.2936  -4.2829  -4.2763  -4.2748  -4.2724  -4.2708
    -4.1806  -3.9494  -3.8991  -3.8929  -3.8883  -3.8862  -3.8841  -3.8829
    -3.8314  -3.6894  -3.6770  -3.6695  -3.6620  -3.6569  -3.6394  -3.6366
    -3.6242  -3.6183  -3.5886  -3.5614  -3.5501  -3.5247  -3.5185  -3.5165
    -3.5150  -3.5126  -3.5113  -3.4838  -3.4653  -3.4576  -3.4521  -3.4493
    -3.4467  -3.4406  -3.3051  -3.2805  -3.2746  -3.2688  -3.2666  -3.2456
    -3.1833  -3.1684  -3.1597  -3.1170  -2.9999  -2.9991  -2.9922  -2.8514
    -2.8434  -2.8296  -2.8256  -2.8223  -2.8211  -2.8183  -2.8178  -2.7313
    -2.6487  -2.6351  -2.6300  -2.6291  -2.6242  -2.6226  -2.5827  -2.4706
    -2.4004  -2.3975  -2.3917  -2.3086  -2.2823  -2.2803  -2.2758  -1.9971
    -1.7789  -1.7266  -1.7087  -1.7057  -1.6933  -1.6291  -1.5925  -0.4027
    -0.3942  -0.3898  -0.3896  -0.3848  -0.3796  -0.1954  -0.1437  -0.1243
    -0.1100   0.7592   0.7721

          k = 0.0000 0.0250 0.0000 (100010 PWs)   bands (ev):

  -106.2871-106.1842-106.1782-106.1505-106.1487-106.1483-106.1429-106.1415
  -106.1403-106.1399-106.1390-106.1378-106.1369-106.1363-106.1360-106.1352
  -106.1348-106.1338-106.1330-106.1328-106.1321-106.1316-106.1311-106.1308
  -106.1300-106.1296-106.1293-106.1287-106.1268-106.1256-106.1253-106.1164
   -57.6550 -57.6384 -57.5812 -57.5787 -57.5735 -57.5668 -57.5640 -57.5623
   -57.5571 -57.5545 -57.5517 -57.5457 -57.5445 -57.5432 -57.5412 -57.5395
   -57.5360 -57.5326 -57.5317 -57.5291 -57.5231 -57.5178 -57.5118 -57.5109
   -57.5057 -57.5014 -57.4981 -57.4934 -57.4907 -57.4870 -57.4812 -57.4801
   -57.4789 -57.4753 -57.4730 -57.4718 -57.4692 -57.4679 -57.4667 -57.4615
   -57.4602 -57.4591 -57.4580 -57.4522 -57.4508 -57.4494 -57.4467 -57.4448
   -57.4406 -57.4381 -57.4355 -57.4338 -57.4322 -57.4299 -57.4257 -57.4222
   -57.4195 -57.4177 -57.4159 -57.4155 -57.4123 -57.4111 -57.4091 -57.4041
   -57.4038 -57.3979 -57.3936 -57.3892 -57.3847 -57.3804 -57.3720 -57.3684
   -57.3658 -57.3583 -57.3545 -57.3511 -57.3494 -57.3449 -57.3419 -57.3378
   -57.3321 -57.3238 -57.3202 -57.3155 -57.3136 -57.3123 -57.3096 -57.3073
   -57.3055 -57.3040 -57.3026 -57.3010 -57.2988 -57.2980 -57.2939 -57.2899
   -23.6468 -23.3907 -22.1163 -21.6745 -21.4628 -21.1590 -20.8322 -20.6940
   -15.4531 -14.5224 -13.0287 -11.9347 -11.1910 -10.3315  -9.3864  -9.1161
    -9.0406  -8.6816  -8.4348  -8.2380  -7.9408  -7.8734  -7.8637  -7.6619
    -7.6423  -7.6017  -7.3817  -7.3756  -7.3018  -7.2330  -7.1288  -7.1117
    -7.0189  -7.0147  -6.9769  -6.9440  -6.9404  -6.8936  -6.8004  -6.6801
    -6.6409  -6.6298  -6.6257  -6.6215  -6.5459  -6.5284  -6.5237  -6.5212
    -6.4689  -6.4159  -6.4113  -6.3850  -6.2810  -6.2769  -6.2515  -6.2448
    -6.1330  -6.1243  -6.0947  -6.0926  -6.0515  -6.0279  -6.0205  -6.0146
    -6.0101  -5.9948  -5.9731  -5.9660  -5.8930  -5.8883  -5.7546  -5.6574
    -5.6119  -5.6041  -5.4598  -5.3900  -5.3875  -5.3437  -5.3205  -5.3170
    -5.3098  -5.2422  -5.1823  -5.1535  -5.1491  -5.1375  -5.1300  -5.1092
    -5.0955  -5.0919  -5.0607  -5.0592  -5.0493  -5.0061  -5.0010  -4.9733
    -4.9718  -4.9554  -4.9455  -4.9434  -4.9416  -4.9232  -4.8758  -4.8723
    -4.8486  -4.8338  -4.8262  -4.8068  -4.7973  -4.6700  -4.5909  -4.5851
    -4.5838  -4.5782  -4.5734  -4.5648  -4.5233  -4.5140  -4.4961  -4.4924
    -4.4485  -4.4420  -4.4328  -4.4273  -4.4219  -4.4081  -4.4030  -4.3975
    -4.3212  -4.3068  -4.2676  -4.2637  -4.2317  -4.2283  -4.1933  -4.1796
    -4.1761  -4.0648  -3.9935  -3.9874  -3.9329  -3.8317  -3.7713  -3.7356
    -3.7210  -3.6967  -3.6893  -3.6844  -3.6632  -3.6422  -3.6269  -3.6163
    -3.5890  -3.5670  -3.5471  -3.5228  -3.5182  -3.5161  -3.5031  -3.4770
    -3.4654  -3.4543  -3.4252  -3.4001  -3.3958  -3.3823  -3.3789  -3.3045
    -3.2921  -3.2642  -3.2616  -3.2514  -3.2400  -3.2159  -3.1785  -3.1734
    -3.1712  -3.1665  -3.1353  -3.0511  -3.0450  -3.0202  -3.0066  -2.9129
    -2.8836  -2.8772  -2.8704  -2.8679  -2.8367  -2.8191  -2.8124  -2.7533
    -2.7417  -2.7196  -2.6814  -2.6764  -2.6406  -2.6262  -2.6124  -2.6083
    -2.5859  -2.4992  -2.4712  -2.4483  -2.4398  -2.4007  -2.3114  -2.1415
    -1.9945  -1.8883  -1.8040  -1.6655  -1.5024  -1.4988  -1.3761  -1.3663
    -1.3201  -1.1205  -0.4012  -0.3937  -0.3135  -0.3086   0.0885   0.2843
     0.3054   0.7968   0.8357

          k = 0.0000-0.0501 0.0000 (100004 PWs)   bands (ev):

  -106.2871-106.1842-106.1782-106.1505-106.1487-106.1483-106.1429-106.1416
  -106.1402-106.1399-106.1390-106.1378-106.1368-106.1363-106.1361-106.1352
  -106.1347-106.1338-106.1330-106.1327-106.1320-106.1318-106.1311-106.1307
  -106.1300-106.1296-106.1294-106.1287-106.1268-106.1256-106.1253-106.1164
   -57.6547 -57.6374 -57.5776 -57.5738 -57.5716 -57.5635 -57.5610 -57.5603
   -57.5540 -57.5534 -57.5520 -57.5510 -57.5499 -57.5484 -57.5428 -57.5385
   -57.5358 -57.5330 -57.5322 -57.5285 -57.5266 -57.5205 -57.5198 -57.5180
   -57.5154 -57.5120 -57.5055 -57.4940 -57.4912 -57.4892 -57.4812 -57.4764
   -57.4755 -57.4728 -57.4700 -57.4663 -57.4643 -57.4632 -57.4600 -57.4573
   -57.4553 -57.4518 -57.4498 -57.4485 -57.4472 -57.4465 -57.4446 -57.4442
   -57.4380 -57.4352 -57.4335 -57.4324 -57.4309 -57.4287 -57.4284 -57.4265
   -57.4258 -57.4230 -57.4212 -57.4188 -57.4149 -57.4121 -57.4112 -57.4069
   -57.4024 -57.3998 -57.3961 -57.3893 -57.3853 -57.3799 -57.3683 -57.3669
   -57.3634 -57.3622 -57.3586 -57.3514 -57.3503 -57.3448 -57.3404 -57.3358
   -57.3315 -57.3242 -57.3205 -57.3161 -57.3138 -57.3129 -57.3097 -57.3063
   -57.3048 -57.3044 -57.3019 -57.3012 -57.2993 -57.2981 -57.2939 -57.2898
   -23.6468 -23.3907 -22.1163 -21.6745 -21.4628 -21.1590 -20.8322 -20.6940
   -15.4531 -14.5225 -13.0287 -11.9348 -11.1908 -10.3314  -9.3835  -9.0583
    -8.7673  -8.7554  -8.6710  -8.4317  -7.9616  -7.9345  -7.9068  -7.6560
    -7.6011  -7.3306  -7.3171  -7.2468  -7.1523  -7.1485  -7.1269  -7.0006
    -6.9943  -6.9915  -6.9890  -6.8436  -6.8307  -6.8136  -6.8000  -6.7994
    -6.7949  -6.7899  -6.6651  -6.6563  -6.6498  -6.6475  -6.6021  -6.5916
    -6.4701  -6.3281  -6.3235  -6.3169  -6.3153  -6.3074  -6.3014  -6.2996
    -6.2917  -6.2611  -6.2492  -6.2205  -6.2162  -6.0826  -6.0669  -6.0127
    -5.9962  -5.9866  -5.9829  -5.9746  -5.9707  -5.9615  -5.7537  -5.6495
    -5.5880  -5.5850  -5.4403  -5.4378  -5.2844  -5.2781  -5.2705  -5.2472
    -5.2398  -5.2293  -5.2218  -5.2171  -5.1970  -5.1787  -5.1692  -5.1383
    -5.1297  -5.1275  -5.1252  -5.1207  -5.1181  -5.0661  -5.0623  -5.0013
    -4.9975  -4.9757  -4.9715  -4.9646  -4.9604  -4.9567  -4.9512  -4.7539
    -4.7352  -4.7273  -4.7237  -4.7186  -4.7180  -4.6924  -4.6806  -4.6765
    -4.6697  -4.6404  -4.6329  -4.6222  -4.5820  -4.5743  -4.4471  -4.4390
    -4.3927  -4.3731  -4.3593  -4.3532  -4.3130  -4.3030  -4.2946  -4.2944
    -4.2673  -4.2656  -4.1871  -4.1090  -4.0990  -4.0111  -3.9904  -3.9824
    -3.9582  -3.9447  -3.9370  -3.9355  -3.9335  -3.8982  -3.8149  -3.7636
    -3.7455  -3.6632  -3.6485  -3.6468  -3.6454  -3.6418  -3.6250  -3.5984
    -3.5455  -3.5316  -3.5246  -3.5138  -3.5128  -3.5067  -3.5019  -3.4528
    -3.4467  -3.3698  -3.3628  -3.3366  -3.3140  -3.2322  -3.2210  -3.2172
    -3.2163  -3.1751  -3.1709  -3.1622  -3.1552  -3.0967  -3.0901  -3.0830
    -3.0678  -3.0675  -3.0601  -3.0486  -3.0455  -2.9528  -2.9446  -2.9045
    -2.8970  -2.8714  -2.8650  -2.8627  -2.8603  -2.8279  -2.8146  -2.8008
    -2.7941  -2.7376  -2.7285  -2.7275  -2.7118  -2.7043  -2.6466  -2.6137
    -2.6093  -2.6031  -2.5979  -2.5943  -2.5406  -2.4628  -2.4584  -2.4576
    -2.4559  -2.3821  -2.2942  -2.0065  -1.9324  -1.8238  -1.6669  -0.7431
    -0.7027  -0.6969  -0.6785  -0.4083  -0.3987  -0.3933  -0.3908  -0.2809
    -0.2594   0.7609   0.7839

          k = 0.0217 0.0375 0.0000 (100080 PWs)   bands (ev):

  -106.2871-106.1842-106.1782-106.1505-106.1487-106.1483-106.1429-106.1415
  -106.1404-106.1398-106.1390-106.1377-106.1368-106.1365-106.1360-106.1351
  -106.1349-106.1338-106.1330-106.1328-106.1319-106.1317-106.1311-106.1307
  -106.1300-106.1297-106.1294-106.1287-106.1268-106.1256-106.1253-106.1164
   -57.6543 -57.6377 -57.5788 -57.5750 -57.5711 -57.5647 -57.5612 -57.5578
   -57.5561 -57.5540 -57.5511 -57.5493 -57.5476 -57.5449 -57.5435 -57.5393
   -57.5384 -57.5351 -57.5327 -57.5295 -57.5282 -57.5241 -57.5176 -57.5142
   -57.5094 -57.5071 -57.4991 -57.4983 -57.4948 -57.4925 -57.4900 -57.4814
   -57.4768 -57.4727 -57.4687 -57.4646 -57.4627 -57.4618 -57.4583 -57.4554
   -57.4528 -57.4521 -57.4501 -57.4487 -57.4460 -57.4445 -57.4429 -57.4418
   -57.4396 -57.4381 -57.4371 -57.4342 -57.4312 -57.4295 -57.4274 -57.4256
   -57.4235 -57.4224 -57.4212 -57.4198 -57.4176 -57.4147 -57.4073 -57.4035
   -57.4028 -57.4015 -57.3970 -57.3903 -57.3852 -57.3780 -57.3719 -57.3667
   -57.3633 -57.3598 -57.3568 -57.3540 -57.3499 -57.3449 -57.3405 -57.3370
   -57.3296 -57.3245 -57.3210 -57.3166 -57.3147 -57.3108 -57.3097 -57.3066
   -57.3054 -57.3042 -57.3022 -57.3008 -57.2993 -57.2980 -57.2939 -57.2898
   -23.6468 -23.3907 -22.1163 -21.6745 -21.4628 -21.1590 -20.8322 -20.6940
   -15.4531 -14.5224 -13.0287 -11.9347 -11.1908 -10.3314  -9.3833  -9.0592
    -8.8686  -8.6808  -8.4648  -8.4281  -8.3992  -7.9302  -7.6570  -7.6029
    -7.4255  -7.3906  -7.3853  -7.2469  -7.1379  -7.1181  -7.1079  -7.0500
    -7.0404  -7.0344  -7.0188  -6.9170  -6.8435  -6.8370  -6.8301  -6.8237
    -6.7988  -6.7715  -6.7298  -6.6683  -6.6606  -6.5252  -6.5014  -6.4873
    -6.4700  -6.4456  -6.3703  -6.3643  -6.3470  -6.3212  -6.3076  -6.2535
    -6.2490  -6.1978  -6.1921  -6.1841  -6.1711  -6.1384  -6.1357  -6.1279
    -6.0044  -5.9891  -5.9017  -5.8982  -5.8807  -5.7846  -5.7668  -5.7459
    -5.6529  -5.4827  -5.4770  -5.4298  -5.4025  -5.3993  -5.2905  -5.2820
    -5.2734  -5.2611  -5.2575  -5.2461  -5.2268  -5.1800  -5.1655  -5.1592
    -5.1463  -5.1424  -5.1384  -5.1336  -5.1115  -5.1088  -5.0739  -5.0665
    -5.0525  -5.0425  -5.0009  -4.9204  -4.9107  -4.9050  -4.8616  -4.7880
    -4.7745  -4.7666  -4.7054  -4.6844  -4.6699  -4.6546  -4.6483  -4.6298
    -4.6012  -4.5208  -4.5132  -4.4873  -4.4823  -4.4611  -4.4576  -4.4365
    -4.4322  -4.4004  -4.3827  -4.3711  -4.2973  -4.2913  -4.2870  -4.2840
    -4.2562  -4.2461  -4.1821  -4.1367  -4.1203  -4.0345  -4.0019  -3.9941
    -3.9853  -3.9803  -3.9359  -3.8897  -3.8795  -3.8626  -3.8598  -3.8218
    -3.7870  -3.7810  -3.7126  -3.6705  -3.6313  -3.5912  -3.5773  -3.5693
    -3.5229  -3.5207  -3.5092  -3.4996  -3.4767  -3.4654  -3.4539  -3.4467
    -3.4245  -3.3949  -3.3888  -3.3846  -3.3767  -3.3537  -3.3342  -3.2963
    -3.1943  -3.1800  -3.1697  -3.1548  -3.1513  -3.1461  -3.1197  -3.1180
    -3.0883  -3.0803  -3.0736  -3.0491  -3.0344  -2.9684  -2.9656  -2.9542
    -2.9467  -2.9232  -2.8948  -2.8805  -2.8783  -2.8720  -2.8126  -2.8002
    -2.7729  -2.7612  -2.7531  -2.7256  -2.7162  -2.6759  -2.6682  -2.6549
    -2.6007  -2.5937  -2.5840  -2.5806  -2.5655  -2.4730  -2.4163  -2.3341
    -2.2868  -2.1836  -1.9580  -1.6791  -1.6623  -1.6515  -1.5727  -1.5672
    -1.4358  -1.4052  -0.7254  -0.6094  -0.5858   0.3169   0.3313   0.4461
     0.4693   0.5774   0.8590

          k =-0.0217 0.0125 0.0000 (100010 PWs)   bands (ev):

  -106.2871-106.1842-106.1782-106.1505-106.1486-106.1483-106.1429-106.1415
  -106.1403-106.1399-106.1390-106.1377-106.1370-106.1363-106.1359-106.1353
  -106.1346-106.1338-106.1331-106.1327-106.1321-106.1315-106.1312-106.1308
  -106.1300-106.1297-106.1292-106.1287-106.1268-106.1256-106.1253-106.1164
   -57.6546 -57.6390 -57.5822 -57.5767 -57.5718 -57.5668 -57.5633 -57.5630
   -57.5607 -57.5562 -57.5502 -57.5480 -57.5442 -57.5420 -57.5401 -57.5390
   -57.5366 -57.5335 -57.5317 -57.5274 -57.5215 -57.5169 -57.5147 -57.5069
   -57.5042 -57.5007 -57.4990 -57.4973 -57.4919 -57.4854 -57.4838 -57.4817
   -57.4801 -57.4737 -57.4726 -57.4700 -57.4690 -57.4672 -57.4662 -57.4624
   -57.4613 -57.4596 -57.4563 -57.4530 -57.4507 -57.4488 -57.4454 -57.4446
   -57.4418 -57.4374 -57.4356 -57.4333 -57.4315 -57.4302 -57.4271 -57.4211
   -57.4197 -57.4189 -57.4169 -57.4157 -57.4114 -57.4103 -57.4094 -57.4041
   -57.4037 -57.3984 -57.3929 -57.3910 -57.3831 -57.3780 -57.3751 -57.3695
   -57.3636 -57.3592 -57.3538 -57.3521 -57.3489 -57.3446 -57.3411 -57.3390
   -57.3315 -57.3240 -57.3204 -57.3169 -57.3126 -57.3114 -57.3088 -57.3074
   -57.3066 -57.3038 -57.3029 -57.3012 -57.2983 -57.2981 -57.2939 -57.2899
   -23.6468 -23.3907 -22.1163 -21.6745 -21.4628 -21.1590 -20.8322 -20.6940
   -15.4531 -14.5224 -13.0287 -11.9346 -11.1910 -10.3316  -9.3857  -9.1171
    -9.0400  -8.6815  -8.4363  -8.2350  -7.9323  -7.8832  -7.8699  -7.6619
    -7.6418  -7.5975  -7.3808  -7.3740  -7.2995  -7.2353  -7.1307  -7.1110
    -7.0209  -7.0139  -6.9768  -6.9448  -6.9393  -6.8926  -6.8000  -6.6789
    -6.6424  -6.6313  -6.6275  -6.6201  -6.5447  -6.5267  -6.5230  -6.5219
    -6.4732  -6.4174  -6.4080  -6.3869  -6.2843  -6.2744  -6.2508  -6.2452
    -6.1338  -6.1268  -6.0967  -6.0933  -6.0395  -6.0276  -6.0208  -6.0152
    -6.0108  -5.9964  -5.9736  -5.9648  -5.8926  -5.8858  -5.7606  -5.6630
    -5.6110  -5.5951  -5.4621  -5.3899  -5.3861  -5.3447  -5.3190  -5.3165
    -5.3114  -5.2428  -5.1814  -5.1551  -5.1473  -5.1350  -5.1334  -5.1118
    -5.0962  -5.0902  -5.0635  -5.0557  -5.0497  -5.0079  -4.9988  -4.9722
    -4.9702  -4.9554  -4.9469  -4.9436  -4.9417  -4.9261  -4.8729  -4.8691
    -4.8425  -4.8395  -4.8261  -4.8048  -4.7953  -4.6724  -4.5932  -4.5887
    -4.5816  -4.5754  -4.5716  -4.5660  -4.5218  -4.5188  -4.4961  -4.4934
    -4.4456  -4.4401  -4.4342  -4.4264  -4.4227  -4.4103  -4.4051  -4.3976
    -4.3185  -4.3064  -4.2739  -4.2591  -4.2309  -4.2277  -4.1962  -4.1830
    -4.1709  -4.0758  -3.9930  -3.9858  -3.9288  -3.8219  -3.7697  -3.7381
    -3.7256  -3.6964  -3.6883  -3.6853  -3.6622  -3.6437  -3.6262  -3.6155
    -3.5883  -3.5687  -3.5462  -3.5236  -3.5192  -3.5143  -3.5081  -3.4755
    -3.4661  -3.4502  -3.4257  -3.4028  -3.3963  -3.3848  -3.3768  -3.3087
    -3.2914  -3.2613  -3.2600  -3.2493  -3.2349  -3.2202  -3.1826  -3.1726
    -3.1714  -3.1659  -3.1357  -3.0519  -3.0460  -3.0132  -3.0061  -2.9215
    -2.8896  -2.8752  -2.8680  -2.8651  -2.8366  -2.8176  -2.8126  -2.7515
    -2.7430  -2.7222  -2.6818  -2.6755  -2.6372  -2.6305  -2.6112  -2.6094
    -2.5817  -2.4993  -2.4715  -2.4453  -2.4432  -2.4006  -2.3154  -2.1451
    -1.9697  -1.8753  -1.8417  -1.6581  -1.5042  -1.4997  -1.3795  -1.3559
    -1.3254  -1.1242  -0.3988  -0.3919  -0.3136  -0.3044   0.0889   0.2748
     0.3127   0.7917   0.8299

          k = 0.0217 0.0125 0.0000 (100010 PWs)   bands (ev):

  -106.2871-106.1842-106.1782-106.1505-106.1487-106.1483-106.1429-106.1415
  -106.1404-106.1398-106.1390-106.1377-106.1370-106.1364-106.1359-106.1351
  -106.1347-106.1338-106.1330-106.1329-106.1320-106.1315-106.1311-106.1307
  -106.1301-106.1296-106.1293-106.1287-106.1268-106.1256-106.1253-106.1164
   -57.6546 -57.6387 -57.5820 -57.5791 -57.5735 -57.5664 -57.5653 -57.5620
   -57.5584 -57.5556 -57.5475 -57.5463 -57.5453 -57.5423 -57.5410 -57.5373
   -57.5363 -57.5328 -57.5317 -57.5287 -57.5233 -57.5157 -57.5116 -57.5091
   -57.5064 -57.5024 -57.4998 -57.4972 -57.4905 -57.4862 -57.4828 -57.4824
   -57.4779 -57.4753 -57.4728 -57.4709 -57.4688 -57.4678 -57.4655 -57.4626
   -57.4609 -57.4585 -57.4567 -57.4519 -57.4509 -57.4494 -57.4461 -57.4449
   -57.4414 -57.4382 -57.4355 -57.4337 -57.4303 -57.4296 -57.4266 -57.4222
   -57.4200 -57.4176 -57.4164 -57.4151 -57.4129 -57.4103 -57.4089 -57.4049
   -57.4029 -57.3978 -57.3942 -57.3902 -57.3843 -57.3786 -57.3746 -57.3685
   -57.3649 -57.3565 -57.3548 -57.3530 -57.3479 -57.3456 -57.3421 -57.3385
   -57.3310 -57.3239 -57.3204 -57.3160 -57.3141 -57.3109 -57.3094 -57.3075
   -57.3054 -57.3046 -57.3025 -57.3009 -57.2988 -57.2979 -57.2940 -57.2899
   -23.6468 -23.3907 -22.1163 -21.6745 -21.4628 -21.1590 -20.8322 -20.6940
   -15.4531 -14.5224 -13.0287 -11.9347 -11.1910 -10.3315  -9.3860  -9.1169
    -9.0402  -8.6817  -8.4348  -8.2381  -7.9404  -7.8750  -7.8649  -7.6616
    -7.6417  -7.5987  -7.3797  -7.3734  -7.3080  -7.2325  -7.1334  -7.1075
    -7.0187  -7.0149  -6.9768  -6.9435  -6.9400  -6.8934  -6.8001  -6.6792
    -6.6421  -6.6309  -6.6271  -6.6201  -6.5445  -6.5267  -6.5239  -6.5221
    -6.4707  -6.4199  -6.4075  -6.3849  -6.2815  -6.2758  -6.2530  -6.2456
    -6.1370  -6.1271  -6.0951  -6.0928  -6.0387  -6.0319  -6.0207  -6.0156
    -6.0105  -5.9885  -5.9708  -5.9694  -5.8943  -5.8877  -5.7589  -5.6670
    -5.6100  -5.5924  -5.4623  -5.3894  -5.3879  -5.3422  -5.3199  -5.3162
    -5.3117  -5.2436  -5.1824  -5.1527  -5.1478  -5.1355  -5.1316  -5.1133
    -5.0965  -5.0894  -5.0629  -5.0592  -5.0494  -5.0064  -4.9992  -4.9733
    -4.9702  -4.9546  -4.9478  -4.9437  -4.9409  -4.9267  -4.8756  -4.8712
    -4.8455  -4.8319  -4.8258  -4.8078  -4.7942  -4.6739  -4.5921  -4.5846
    -4.5794  -4.5777  -4.5728  -4.5651  -4.5245  -4.5160  -4.5010  -4.4943
    -4.4433  -4.4414  -4.4308  -4.4289  -4.4194  -4.4067  -4.4019  -4.3988
    -4.3193  -4.3065  -4.2701  -4.2609  -4.2344  -4.2279  -4.1952  -4.1832
    -4.1680  -4.0640  -4.0014  -3.9872  -3.9332  -3.8366  -3.7740  -3.7348
    -3.7193  -3.6965  -3.6862  -3.6805  -3.6620  -3.6425  -3.6263  -3.6106
    -3.5889  -3.5773  -3.5444  -3.5221  -3.5200  -3.5155  -3.5016  -3.4756
    -3.4694  -3.4588  -3.4252  -3.4004  -3.3890  -3.3808  -3.3709  -3.3050
    -3.2964  -3.2648  -3.2617  -3.2539  -3.2333  -3.2294  -3.1762  -3.1736
    -3.1709  -3.1642  -3.1353  -3.0553  -3.0466  -3.0179  -3.0064  -2.9112
    -2.8866  -2.8772  -2.8697  -2.8665  -2.8286  -2.8238  -2.8151  -2.7514
    -2.7423  -2.7212  -2.6822  -2.6767  -2.6394  -2.6263  -2.6137  -2.6081
    -2.5828  -2.4995  -2.4748  -2.4477  -2.4409  -2.4008  -2.3128  -2.1340
    -1.9805  -1.8703  -1.8473  -1.6628  -1.5043  -1.5000  -1.3757  -1.3524
    -1.3360  -1.1165  -0.3968  -0.3939  -0.3172  -0.3014   0.0878   0.2814
     0.3092   0.7954   0.8312

          k = 0.0433-0.0250 0.0000 (100004 PWs)   bands (ev):

  -106.2871-106.1842-106.1782-106.1505-106.1486-106.1483-106.1429-106.1416
  -106.1402-106.1400-106.1390-106.1377-106.1370-106.1363-106.1358-106.1354
  -106.1346-106.1339-106.1330-106.1327-106.1321-106.1316-106.1312-106.1307
  -106.1299-106.1298-106.1292-106.1287-106.1268-106.1255-106.1253-106.1164
   -57.6540 -57.6385 -57.5768 -57.5722 -57.5669 -57.5652 -57.5648 -57.5602
   -57.5584 -57.5552 -57.5522 -57.5501 -57.5487 -57.5485 -57.5416 -57.5403
   -57.5352 -57.5327 -57.5304 -57.5288 -57.5276 -57.5195 -57.5182 -57.5171
   -57.5113 -57.5103 -57.5047 -57.5019 -57.4932 -57.4862 -57.4842 -57.4789
   -57.4747 -57.4713 -57.4681 -57.4664 -57.4657 -57.4641 -57.4610 -57.4562
   -57.4539 -57.4529 -57.4514 -57.4494 -57.4464 -57.4444 -57.4419 -57.4405
   -57.4379 -57.4343 -57.4336 -57.4329 -57.4315 -57.4305 -57.4279 -57.4275
   -57.4252 -57.4240 -57.4230 -57.4218 -57.4127 -57.4116 -57.4110 -57.4055
   -57.4039 -57.4010 -57.3946 -57.3915 -57.3840 -57.3754 -57.3728 -57.3678
   -57.3657 -57.3582 -57.3575 -57.3536 -57.3495 -57.3442 -57.3405 -57.3371
   -57.3296 -57.3245 -57.3217 -57.3183 -57.3125 -57.3101 -57.3086 -57.3080
   -57.3061 -57.3034 -57.3030 -57.3015 -57.2984 -57.2982 -57.2939 -57.2899
   -23.6468 -23.3907 -22.1163 -21.6745 -21.4628 -21.1590 -20.8322 -20.6940
   -15.4531 -14.5224 -13.0287 -11.9346 -11.1910 -10.3315  -9.3825  -9.0590
    -8.7608  -8.7551  -8.6808  -8.4274  -7.9464  -7.9427  -7.9215  -7.6564
    -7.5946  -7.3316  -7.3149  -7.2406  -7.1574  -7.1493  -7.1262  -7.0033
    -6.9960  -6.9922  -6.9866  -6.8405  -6.8304  -6.8124  -6.8079  -6.7975
    -6.7967  -6.7869  -6.6691  -6.6529  -6.6507  -6.6448  -6.6041  -6.5907
    -6.4711  -6.3291  -6.3234  -6.3181  -6.3140  -6.3102  -6.3014  -6.2985
    -6.2911  -6.2636  -6.2509  -6.2252  -6.2151  -6.0724  -6.0628  -6.0149
    -5.9912  -5.9886  -5.9856  -5.9761  -5.9654  -5.9617  -5.7608  -5.6532
    -5.5902  -5.5821  -5.4384  -5.4312  -5.2855  -5.2786  -5.2662  -5.2481
    -5.2397  -5.2254  -5.2236  -5.2124  -5.2081  -5.1799  -5.1696  -5.1428
    -5.1334  -5.1257  -5.1204  -5.1190  -5.1182  -5.0699  -5.0580  -5.0055
    -4.9943  -4.9791  -4.9693  -4.9619  -4.9577  -4.9542  -4.9514  -4.7410
    -4.7312  -4.7268  -4.7251  -4.7197  -4.7167  -4.7040  -4.6830  -4.6745
    -4.6715  -4.6424  -4.6336  -4.6200  -4.5847  -4.5744  -4.4518  -4.4411
    -4.3883  -4.3700  -4.3615  -4.3531  -4.3075  -4.3038  -4.2972  -4.2949
    -4.2723  -4.2595  -4.1857  -4.1118  -4.1037  -3.9972  -3.9940  -3.9864
    -3.9607  -3.9501  -3.9403  -3.9330  -3.9274  -3.8998  -3.8050  -3.7668
    -3.7494  -3.6630  -3.6456  -3.6441  -3.6435  -3.6344  -3.6266  -3.6205
    -3.5431  -3.5303  -3.5244  -3.5151  -3.5120  -3.5118  -3.5046  -3.4555
    -3.4387  -3.3747  -3.3581  -3.3369  -3.3082  -3.2373  -3.2207  -3.2185
    -3.2099  -3.1800  -3.1732  -3.1596  -3.1533  -3.0983  -3.0873  -3.0804
    -3.0688  -3.0624  -3.0593  -3.0553  -3.0442  -2.9615  -2.9420  -2.9100
    -2.8943  -2.8670  -2.8662  -2.8596  -2.8577  -2.8301  -2.8124  -2.8013
    -2.7940  -2.7407  -2.7313  -2.7256  -2.7122  -2.7029  -2.6519  -2.6226
    -2.6068  -2.6042  -2.5956  -2.5737  -2.5505  -2.4639  -2.4616  -2.4568
    -2.4543  -2.4009  -2.2757  -1.9826  -1.9073  -1.8824  -1.6551  -0.7434
    -0.7095  -0.7017  -0.6680  -0.4077  -0.3964  -0.3915  -0.3875  -0.2823
    -0.2650   0.7469   0.7954

          k =-0.0433-0.0250 0.0000 (100004 PWs)   bands (ev):

  -106.2871-106.1842-106.1782-106.1505-106.1487-106.1483-106.1430-106.1414
  -106.1405-106.1397-106.1390-106.1376-106.1369-106.1366-106.1358-106.1352
  -106.1348-106.1337-106.1330-106.1329-106.1318-106.1317-106.1311-106.1306
  -106.1300-106.1298-106.1294-106.1286-106.1268-106.1255-106.1253-106.1164
   -57.6539 -57.6380 -57.5806 -57.5757 -57.5692 -57.5646 -57.5601 -57.5590
   -57.5582 -57.5551 -57.5516 -57.5511 -57.5488 -57.5434 -57.5397 -57.5370
   -57.5357 -57.5332 -57.5311 -57.5291 -57.5252 -57.5196 -57.5187 -57.5187
   -57.5160 -57.5114 -57.5075 -57.5001 -57.4924 -57.4874 -57.4819 -57.4791
   -57.4775 -57.4717 -57.4696 -57.4668 -57.4639 -57.4607 -57.4591 -57.4571
   -57.4562 -57.4518 -57.4502 -57.4489 -57.4474 -57.4468 -57.4446 -57.4403
   -57.4392 -57.4344 -57.4329 -57.4321 -57.4315 -57.4293 -57.4272 -57.4264
   -57.4252 -57.4243 -57.4210 -57.4186 -57.4163 -57.4127 -57.4107 -57.4057
   -57.4026 -57.3990 -57.3975 -57.3908 -57.3853 -57.3762 -57.3742 -57.3657
   -57.3632 -57.3607 -57.3560 -57.3538 -57.3493 -57.3456 -57.3411 -57.3373
   -57.3282 -57.3250 -57.3212 -57.3165 -57.3153 -57.3107 -57.3087 -57.3068
   -57.3060 -57.3044 -57.3022 -57.3006 -57.2994 -57.2980 -57.2940 -57.2898
   -23.6468 -23.3907 -22.1163 -21.6745 -21.4628 -21.1590 -20.8322 -20.6940
   -15.4531 -14.5224 -13.0287 -11.9347 -11.1908 -10.3314  -9.3828  -9.0590
    -8.7653  -8.7548  -8.6745  -8.4312  -7.9617  -7.9341  -7.9092  -7.6553
    -7.5966  -7.3275  -7.3189  -7.2492  -7.1585  -7.1521  -7.1196  -6.9988
    -6.9958  -6.9917  -6.9879  -6.8414  -6.8312  -6.8089  -6.8026  -6.7983
    -6.7978  -6.7894  -6.6626  -6.6543  -6.6511  -6.6495  -6.6042  -6.5900
    -6.4755  -6.3290  -6.3273  -6.3170  -6.3152  -6.3096  -6.3029  -6.2995
    -6.2901  -6.2573  -6.2490  -6.2207  -6.2177  -6.0784  -6.0650  -6.0089
    -5.9956  -5.9858  -5.9821  -5.9733  -5.9700  -5.9672  -5.7594  -5.6546
    -5.5896  -5.5829  -5.4367  -5.4323  -5.2825  -5.2795  -5.2719  -5.2427
    -5.2364  -5.2303  -5.2227  -5.2192  -5.2029  -5.1788  -5.1718  -5.1398
    -5.1272  -5.1269  -5.1234  -5.1211  -5.1172  -5.0692  -5.0611  -5.0020
    -4.9992  -4.9794  -4.9689  -4.9636  -4.9605  -4.9553  -4.9490  -4.7427
    -4.7334  -4.7277  -4.7232  -4.7212  -4.7191  -4.6905  -4.6820  -4.6781
    -4.6722  -4.6517  -4.6304  -4.6243  -4.5821  -4.5705  -4.4418  -4.4380
    -4.3828  -4.3764  -4.3564  -4.3517  -4.3135  -4.3038  -4.2996  -4.2935
    -4.2689  -4.2607  -4.1875  -4.1085  -4.1003  -4.0315  -3.9925  -3.9857
    -3.9527  -3.9470  -3.9391  -3.9327  -3.9324  -3.8907  -3.8199  -3.7624
    -3.7283  -3.6558  -3.6530  -3.6445  -3.6422  -3.6373  -3.6221  -3.6108
    -3.5504  -3.5380  -3.5294  -3.5168  -3.5163  -3.5091  -3.5051  -3.4420
    -3.4242  -3.3728  -3.3607  -3.3358  -3.3242  -3.2354  -3.2242  -3.2199
    -3.2156  -3.1700  -3.1690  -3.1634  -3.1572  -3.0958  -3.0912  -3.0821
    -3.0716  -3.0672  -3.0633  -3.0482  -3.0415  -2.9518  -2.9441  -2.9016
    -2.8969  -2.8752  -2.8673  -2.8633  -2.8577  -2.8232  -2.8179  -2.8050
    -2.7989  -2.7371  -2.7303  -2.7294  -2.7094  -2.7065  -2.6420  -2.6184
    -2.6116  -2.6048  -2.6001  -2.5929  -2.5437  -2.4632  -2.4600  -2.4567
    -2.4549  -2.3804  -2.2743  -1.9906  -1.9105  -1.8837  -1.6599  -0.7486
    -0.7099  -0.7000  -0.6638  -0.4019  -0.3980  -0.3966  -0.3883  -0.2826
    -0.2540   0.7387   0.8089

          k =-0.0217 0.0375 0.0000 (100080 PWs)   bands (ev):

  -106.2871-106.1842-106.1782-106.1505-106.1487-106.1483-106.1429-106.1416
  -106.1402-106.1400-106.1390-106.1378-106.1369-106.1363-106.1359-106.1353
  -106.1347-106.1338-106.1330-106.1327-106.1320-106.1317-106.1312-106.1307
  -106.1299-106.1297-106.1293-106.1287-106.1268-106.1256-106.1253-106.1164
   -57.6544 -57.6380 -57.5776 -57.5721 -57.5691 -57.5649 -57.5631 -57.5598
   -57.5576 -57.5552 -57.5526 -57.5495 -57.5470 -57.5458 -57.5415 -57.5402
   -57.5384 -57.5349 -57.5336 -57.5291 -57.5263 -57.5236 -57.5208 -57.5143
   -57.5089 -57.5052 -57.4992 -57.4982 -57.4934 -57.4914 -57.4898 -57.4833
   -57.4759 -57.4713 -57.4678 -57.4657 -57.4647 -57.4631 -57.4584 -57.4564
   -57.4528 -57.4512 -57.4501 -57.4493 -57.4441 -57.4435 -57.4421 -57.4396
   -57.4393 -57.4386 -57.4364 -57.4349 -57.4338 -57.4311 -57.4267 -57.4263
   -57.4238 -57.4225 -57.4214 -57.4196 -57.4184 -57.4137 -57.4068 -57.4043
   -57.4033 -57.4015 -57.3959 -57.3907 -57.3844 -57.3778 -57.3710 -57.3676
   -57.3641 -57.3609 -57.3555 -57.3538 -57.3504 -57.3442 -57.3402 -57.3367
   -57.3302 -57.3247 -57.3209 -57.3174 -57.3134 -57.3112 -57.3092 -57.3067
   -57.3058 -57.3040 -57.3023 -57.3015 -57.2986 -57.2982 -57.2939 -57.2899
   -23.6468 -23.3907 -22.1163 -21.6745 -21.4628 -21.1590 -20.8322 -20.6940
   -15.4531 -14.5225 -13.0287 -11.9347 -11.1909 -10.3314  -9.3831  -9.0592
    -8.8681  -8.6818  -8.4634  -8.4302  -8.3976  -7.9298  -7.6573  -7.6048
    -7.4259  -7.3924  -7.3890  -7.2385  -7.1323  -7.1179  -7.1128  -7.0455
    -7.0432  -7.0314  -7.0230  -6.9159  -6.8515  -6.8390  -6.8278  -6.8234
    -6.7982  -6.7728  -6.7288  -6.6651  -6.6612  -6.5278  -6.4986  -6.4832
    -6.4726  -6.4477  -6.3700  -6.3609  -6.3438  -6.3237  -6.3103  -6.2568
    -6.2466  -6.1989  -6.1924  -6.1783  -6.1732  -6.1428  -6.1364  -6.1274
    -6.0011  -5.9896  -5.8995  -5.8975  -5.8840  -5.7834  -5.7659  -5.7452
    -5.6547  -5.4835  -5.4763  -5.4302  -5.4011  -5.4005  -5.2891  -5.2845
    -5.2720  -5.2627  -5.2573  -5.2451  -5.2272  -5.1747  -5.1675  -5.1587
    -5.1502  -5.1433  -5.1391  -5.1317  -5.1100  -5.1084  -5.0750  -5.0680
    -5.0485  -5.0450  -4.9997  -4.9239  -4.9064  -4.9059  -4.8610  -4.7874
    -4.7712  -4.7663  -4.7071  -4.6835  -4.6751  -4.6565  -4.6455  -4.6336
    -4.6021  -4.5200  -4.5152  -4.4880  -4.4821  -4.4605  -4.4579  -4.4353
    -4.4337  -4.3983  -4.3756  -4.3706  -4.2997  -4.2944  -4.2868  -4.2829
    -4.2558  -4.2460  -4.1841  -4.1341  -4.1224  -4.0424  -4.0046  -3.9893
    -3.9863  -3.9816  -3.9219  -3.8974  -3.8825  -3.8646  -3.8601  -3.8073
    -3.7843  -3.7791  -3.7289  -3.6607  -3.6306  -3.5956  -3.5812  -3.5630
    -3.5339  -3.5252  -3.5186  -3.4851  -3.4768  -3.4670  -3.4585  -3.4438
    -3.4237  -3.3964  -3.3915  -3.3874  -3.3644  -3.3561  -3.3381  -3.2926
    -3.1955  -3.1815  -3.1644  -3.1545  -3.1492  -3.1437  -3.1197  -3.1180
    -3.0923  -3.0791  -3.0709  -3.0446  -3.0403  -2.9728  -2.9632  -2.9546
    -2.9475  -2.9236  -2.8888  -2.8815  -2.8778  -2.8755  -2.8069  -2.8036
    -2.7760  -2.7596  -2.7543  -2.7249  -2.7158  -2.6767  -2.6680  -2.6518
    -2.6015  -2.5940  -2.5823  -2.5741  -2.5692  -2.4765  -2.4173  -2.3369
    -2.2893  -2.1804  -1.9560  -1.6790  -1.6662  -1.6551  -1.5703  -1.5674
    -1.4364  -1.3908  -0.7287  -0.6099  -0.5935   0.3105   0.3377   0.4408
     0.4805   0.5730   0.8584

          k = 0.0433 0.0000 0.0000 (100080 PWs)   bands (ev):

  -106.2871-106.1842-106.1782-106.1505-106.1487-106.1483-106.1429-106.1415
  -106.1404-106.1398-106.1390-106.1377-106.1370-106.1364-106.1358-106.1353
  -106.1347-106.1338-106.1331-106.1328-106.1319-106.1317-106.1311-106.1307
  -106.1300-106.1298-106.1293-106.1287-106.1268-106.1255-106.1253-106.1164
   -57.6540 -57.6383 -57.5790 -57.5732 -57.5691 -57.5661 -57.5620 -57.5594
   -57.5562 -57.5545 -57.5513 -57.5499 -57.5477 -57.5451 -57.5441 -57.5403
   -57.5380 -57.5349 -57.5314 -57.5295 -57.5247 -57.5222 -57.5182 -57.5138
   -57.5119 -57.5067 -57.5018 -57.4975 -57.4939 -57.4904 -57.4893 -57.4868
   -57.4748 -57.4733 -57.4678 -57.4653 -57.4633 -57.4605 -57.4583 -57.4564
   -57.4553 -57.4510 -57.4504 -57.4489 -57.4445 -57.4436 -57.4425 -57.4398
   -57.4387 -57.4374 -57.4356 -57.4344 -57.4323 -57.4307 -57.4281 -57.4264
   -57.4249 -57.4228 -57.4207 -57.4196 -57.4183 -57.4140 -57.4060 -57.4041
   -57.4029 -57.4022 -57.3963 -57.3915 -57.3838 -57.3757 -57.3747 -57.3674
   -57.3624 -57.3601 -57.3563 -57.3542 -57.3500 -57.3446 -57.3401 -57.3377
   -57.3288 -57.3249 -57.3213 -57.3178 -57.3136 -57.3105 -57.3087 -57.3072
   -57.3055 -57.3045 -57.3024 -57.3012 -57.2987 -57.2982 -57.2939 -57.2898
   -23.6468 -23.3907 -22.1163 -21.6745 -21.4628 -21.1590 -20.8322 -20.6940
   -15.4531 -14.5224 -13.0287 -11.9347 -11.1909 -10.3315  -9.3827  -9.0598
    -8.8674  -8.6828  -8.4626  -8.4302  -8.3981  -7.9299  -7.6568  -7.6070
    -7.4253  -7.3914  -7.3845  -7.2400  -7.1352  -7.1195  -7.1116  -7.0464
    -7.0426  -7.0338  -7.0212  -6.9175  -6.8449  -6.8379  -6.8293  -6.8227
    -6.7998  -6.7735  -6.7269  -6.6661  -6.6612  -6.5287  -6.4985  -6.4891
    -6.4715  -6.4458  -6.3707  -6.3589  -6.3464  -6.3202  -6.3109  -6.2601
    -6.2444  -6.2009  -6.1927  -6.1802  -6.1729  -6.1395  -6.1354  -6.1281
    -6.0055  -5.9850  -5.9002  -5.8967  -5.8797  -5.7908  -5.7671  -5.7452
    -5.6476  -5.4805  -5.4767  -5.4345  -5.4028  -5.3998  -5.2861  -5.2833
    -5.2732  -5.2617  -5.2584  -5.2458  -5.2285  -5.1778  -5.1627  -5.1569
    -5.1525  -5.1410  -5.1380  -5.1352  -5.1108  -5.1071  -5.0757  -5.0676
    -5.0524  -5.0426  -5.0015  -4.9230  -4.9082  -4.9045  -4.8597  -4.7874
    -4.7708  -4.7642  -4.7109  -4.6868  -4.6817  -4.6529  -4.6449  -4.6291
    -4.5977  -4.5195  -4.5141  -4.4873  -4.4789  -4.4613  -4.4565  -4.4356
    -4.4331  -4.4013  -4.3762  -4.3706  -4.2985  -4.2924  -4.2889  -4.2821
    -4.2549  -4.2479  -4.1850  -4.1381  -4.1217  -4.0350  -4.0016  -3.9904
    -3.9873  -3.9809  -3.9383  -3.8939  -3.8810  -3.8668  -3.8587  -3.8080
    -3.7888  -3.7825  -3.7147  -3.6652  -3.6298  -3.5930  -3.5748  -3.5676
    -3.5257  -3.5233  -3.5142  -3.4952  -3.4790  -3.4699  -3.4598  -3.4381
    -3.4263  -3.3930  -3.3867  -3.3817  -3.3757  -3.3557  -3.3351  -3.2955
    -3.2021  -3.1759  -3.1645  -3.1572  -3.1525  -3.1470  -3.1205  -3.1161
    -3.0909  -3.0776  -3.0710  -3.0471  -3.0368  -2.9741  -2.9620  -2.9576
    -2.9444  -2.9231  -2.8882  -2.8832  -2.8793  -2.8734  -2.8081  -2.8025
    -2.7767  -2.7589  -2.7538  -2.7305  -2.7140  -2.6751  -2.6692  -2.6559
    -2.5998  -2.5929  -2.5887  -2.5721  -2.5682  -2.4758  -2.4180  -2.3328
    -2.2846  -2.1842  -1.9550  -1.6833  -1.6607  -1.6536  -1.5705  -1.5672
    -1.4265  -1.4097  -0.7320  -0.6073  -0.5886   0.3143   0.3390   0.4387
     0.4735   0.5776   0.8632

     the Fermi energy is    -1.0880 ev

!    total energy              =   -9129.52630933 Ry
     Harris-Foulkes estimate   =   -9129.52630940 Ry
     estimated scf accuracy    <       0.00000014 Ry

     The total energy is the sum of the following terms:

     one-electron contribution =  -83478.37098374 Ry
     hartree contribution      =   41580.17142942 Ry
     xc contribution           =    -897.79724766 Ry
     ewald contribution        =   33666.48472475 Ry
     smearing contrib. (-TS)   =      -0.01423210 Ry

     convergence has been achieved in  39 iterations

     Forces acting on atoms (Ry/au):


     negative rho (up, down):  5.000E-03 0.000E+00
     atom    1 type  1   force =    -0.00014775   -0.00002767   -0.02362883
     atom    2 type  1   force =    -0.00029534    0.00007235    0.02372620
     atom    3 type  1   force =    -0.00001878   -0.00019897   -0.02387084
     atom    4 type  1   force =    -0.00001104   -0.00006320    0.02393461
     atom    5 type  1   force =    -0.00010037   -0.00011313   -0.02532828
     atom    6 type  1   force =     0.00037484   -0.00015434    0.02416062
     atom    7 type  1   force =    -0.00010097    0.00014241   -0.02526666
     atom    8 type  1   force =     0.00002631    0.00017256    0.02418843
     atom    9 type  1   force =     0.00001540    0.00024394   -0.02437198
     atom   10 type  1   force =    -0.00055880   -0.00037040    0.02011987
     atom   11 type  1   force =     0.00008066   -0.00006409   -0.02444378
     atom   12 type  1   force =    -0.00105102   -0.00011794    0.02308195
     atom   13 type  1   force =     0.00021563    0.00005719   -0.02398354
     atom   14 type  1   force =     0.00016715   -0.00005408    0.02405053
     atom   15 type  1   force =    -0.00010947   -0.00013201   -0.02420275
     atom   16 type  1   force =    -0.00000244    0.00012655    0.02453289
     atom   17 type  1   force =     0.00008804   -0.00001312   -0.02469765
     atom   18 type  1   force =     0.00010846   -0.00018239    0.02420182
     atom   19 type  1   force =    -0.00029615    0.00006776   -0.02348157
     atom   20 type  1   force =    -0.00012190   -0.00637854    0.01800122
     atom   21 type  1   force =    -0.00007039   -0.00012692   -0.02376999
     atom   22 type  1   force =    -0.00889369    0.00331600    0.01167693
     atom   23 type  1   force =    -0.00000929   -0.00006461   -0.02400829
     atom   24 type  1   force =    -0.00010115    0.00018163    0.02393454
     atom   25 type  1   force =    -0.00001796    0.00007425   -0.02403531
     atom   26 type  1   force =     0.00001154   -0.00014326    0.02385837
     atom   27 type  1   force =     0.00024509    0.00017871   -0.02338753
     atom   28 type  1   force =     0.00060097   -0.00023732    0.02352987
     atom   29 type  1   force =     0.00011691   -0.00006921   -0.02458158
     atom   30 type  1   force =     0.01221312    0.00650927    0.00636882
     atom   31 type  1   force =     0.00021505    0.00017347   -0.02362269
     atom   32 type  1   force =     0.00021888    0.00082895    0.02410797
     atom   33 type  2   force =    -0.00349466   -0.01998936   -0.01272421
     atom   34 type  2   force =     0.01383689   -0.00426321    0.00790703
     atom   35 type  2   force =    -0.01078902    0.00964897    0.01178785
     atom   36 type  2   force =    -0.00300944   -0.00794424    0.02190215
     atom   37 type  2   force =    -0.02316246    0.02447196   -0.00690193
     atom   38 type  2   force =    -0.00494155   -0.03622611    0.03415685
     atom   39 type  2   force =    -0.02965747    0.02427460   -0.00889771
     atom   40 type  2   force =     0.00125431   -0.03210026   -0.00350706
     atom   41 type  3   force =     0.02744456    0.00299016    0.02298052
     atom   42 type  3   force =    -0.00457060    0.02757488    0.00317455
     atom   43 type  3   force =     0.00003827   -0.02835477    0.02443576
     atom   44 type  3   force =    -0.03735755   -0.00549721    0.00394616
     atom   45 type  3   force =     0.06041555   -0.04121891   -0.01130894
     atom   46 type  3   force =     0.01875823    0.04280075   -0.00846323
     atom   47 type  4   force =    -0.02385110    0.00702119   -0.00820040
     atom   48 type  4   force =     0.00026919   -0.00229988   -0.00467096
     atom   49 type  4   force =    -0.00169744    0.01738383   -0.01128568
     atom   50 type  4   force =     0.00643171   -0.01558313   -0.01750022
     atom   51 type  4   force =    -0.00151936    0.00453081   -0.00813282
     atom   52 type  4   force =    -0.00644561    0.00670120   -0.00259663
     atom   53 type  4   force =     0.00229869    0.00053849    0.00222302
     atom   54 type  4   force =     0.00454380    0.00657350    0.00582968
     atom   55 type  4   force =     0.00876436   -0.00675578    0.00903376
     atom   56 type  4   force =     0.00364913    0.02208867    0.00001909

     Total force =     0.202176     Total SCF correction =     0.001780
 !ASE

     Writing output data file calc.save
     Check: negative starting charge=   -0.002233
     NEW-OLD atomic charge density approx. for the potential
     Check: negative starting charge=   -0.002225

     negative rho (up, down):  5.875E-03 0.000E+00

     total cpu time spent up to now is    16821.9 secs

     per-process dynamical memory:   848.1 Mb

     Self-consistent Calculation

     iteration #  1     ecut=    40.42 Ry     beta=0.07
     Davidson diagonalization with overlap
     ethr =  1.05E-10,  avg # of iterations = 10.1

     negative rho (up, down):  5.271E-03 0.000E+00

     total cpu time spent up to now is    18036.8 secs

     total energy              =   -9129.00984602 Ry
     Harris-Foulkes estimate   =   -9129.02042961 Ry
     estimated scf accuracy    <       0.22799070 Ry

     iteration #  2     ecut=    40.42 Ry     beta=0.07
     Davidson diagonalization with overlap
     ethr =  3.30E-05,  avg # of iterations =  1.0

     negative rho (up, down):  9.202E-03 0.000E+00

     total cpu time spent up to now is    18415.4 secs

     total energy              =   -9128.91622076 Ry
     Harris-Foulkes estimate   =   -9129.01000502 Ry
     estimated scf accuracy    <       0.19942750 Ry

     iteration #  3     ecut=    40.42 Ry     beta=0.07
     Davidson diagonalization with overlap
     ethr =  2.89E-05,  avg # of iterations =  3.0

     negative rho (up, down):  8.436E-03 0.000E+00

     total cpu time spent up to now is    18847.7 secs

     total energy              =   -9128.94375899 Ry
     Harris-Foulkes estimate   =   -9128.94375311 Ry
     estimated scf accuracy    <       0.03192500 Ry

     iteration #  4     ecut=    40.42 Ry     beta=0.07
     Davidson diagonalization with overlap
     ethr =  4.63E-06,  avg # of iterations =  1.0

     negative rho (up, down):  7.728E-03 0.000E+00

     total cpu time spent up to now is    19234.0 secs

     total energy              =   -9128.94357865 Ry
     Harris-Foulkes estimate   =   -9128.94384511 Ry
     estimated scf accuracy    <       0.03191018 Ry

     iteration #  5     ecut=    40.42 Ry     beta=0.07
     Davidson diagonalization with overlap
     ethr =  4.62E-06,  avg # of iterations =  1.0

     negative rho (up, down):  6.532E-03 0.000E+00

     total cpu time spent up to now is    19622.4 secs

     total energy              =   -9128.93295045 Ry
     Harris-Foulkes estimate   =   -9128.94359137 Ry
     estimated scf accuracy    <       0.03102599 Ry

     iteration #  6     ecut=    40.42 Ry     beta=0.07
     Davidson diagonalization with overlap
     ethr =  4.50E-06,  avg # of iterations =  3.0

     negative rho (up, down):  6.119E-03 0.000E+00

     total cpu time spent up to now is    20078.3 secs

     total energy              =   -9128.93711084 Ry
     Harris-Foulkes estimate   =   -9128.93720326 Ry
     estimated scf accuracy    <       0.01061050 Ry

     iteration #  7     ecut=    40.42 Ry     beta=0.07
     Davidson diagonalization with overlap
     ethr =  1.54E-06,  avg # of iterations =  1.0

     negative rho (up, down):  4.186E-03 0.000E+00

     total cpu time spent up to now is    20473.3 secs

     total energy              =   -9128.93489241 Ry
     Harris-Foulkes estimate   =   -9128.93713499 Ry
     estimated scf accuracy    <       0.01008553 Ry

     iteration #  8     ecut=    40.42 Ry     beta=0.07
     Davidson diagonalization with overlap
     ethr =  1.46E-06,  avg # of iterations =  3.0

     negative rho (up, down):  3.340E-03 0.000E+00

     total cpu time spent up to now is    20912.5 secs

     total energy              =   -9128.93489875 Ry
     Harris-Foulkes estimate   =   -9128.93590094 Ry
     estimated scf accuracy    <       0.00503308 Ry

     iteration #  9     ecut=    40.42 Ry     beta=0.07
     Davidson diagonalization with overlap
     ethr =  7.29E-07,  avg # of iterations =  3.0

     negative rho (up, down):  2.797E-03 0.000E+00

     total cpu time spent up to now is    21353.7 secs

     total energy              =   -9128.93514236 Ry
     Harris-Foulkes estimate   =   -9128.93529871 Ry
     estimated scf accuracy    <       0.00272905 Ry

     iteration # 10     ecut=    40.42 Ry     beta=0.07
     Davidson diagonalization with overlap
     ethr =  3.96E-07,  avg # of iterations =  1.0

     negative rho (up, down):  2.101E-03 0.000E+00

     total cpu time spent up to now is    21746.2 secs

     total energy              =   -9128.93491400 Ry
     Harris-Foulkes estimate   =   -9128.93515949 Ry
     estimated scf accuracy    <       0.00206058 Ry

     iteration # 11     ecut=    40.42 Ry     beta=0.07
     Davidson diagonalization with overlap
     ethr =  2.99E-07,  avg # of iterations =  2.0

     negative rho (up, down):  1.966E-03 0.000E+00

     total cpu time spent up to now is    22169.0 secs

     total energy              =   -9128.93502335 Ry
     Harris-Foulkes estimate   =   -9128.93502483 Ry
     estimated scf accuracy    <       0.00106916 Ry

     iteration # 12     ecut=    40.42 Ry     beta=0.07
     Davidson diagonalization with overlap
     ethr =  1.55E-07,  avg # of iterations =  1.0

     negative rho (up, down):  2.019E-03 0.000E+00

     total cpu time spent up to now is    22556.5 secs

     total energy              =   -9128.93493521 Ry
     Harris-Foulkes estimate   =   -9128.93502848 Ry
     estimated scf accuracy    <       0.00099514 Ry

     iteration # 13     ecut=    40.42 Ry     beta=0.07
     Davidson diagonalization with overlap
     ethr =  1.44E-07,  avg # of iterations =  3.0

     negative rho (up, down):  2.333E-03 0.000E+00

     total cpu time spent up to now is    22982.2 secs

     total energy              =   -9128.93498913 Ry
     Harris-Foulkes estimate   =   -9128.93498887 Ry
     estimated scf accuracy    <       0.00045231 Ry

     iteration # 14     ecut=    40.42 Ry     beta=0.07
     Davidson diagonalization with overlap
     ethr =  6.56E-08,  avg # of iterations =  2.0

     negative rho (up, down):  2.754E-03 0.000E+00

     total cpu time spent up to now is    23385.1 secs

     total energy              =   -9128.93498950 Ry
     Harris-Foulkes estimate   =   -9128.93499334 Ry
     estimated scf accuracy    <       0.00040676 Ry

     iteration # 15     ecut=    40.42 Ry     beta=0.07
     Davidson diagonalization with overlap
     ethr =  5.90E-08,  avg # of iterations =  2.1

     negative rho (up, down):  3.358E-03 0.000E+00

     total cpu time spent up to now is    23796.1 secs

     total energy              =   -9128.93496910 Ry
     Harris-Foulkes estimate   =   -9128.93500526 Ry
     estimated scf accuracy    <       0.00032085 Ry

     iteration # 16     ecut=    40.42 Ry     beta=0.07
     Davidson diagonalization with overlap
     ethr =  4.65E-08,  avg # of iterations =  3.0

     negative rho (up, down):  3.445E-03 0.000E+00

     total cpu time spent up to now is    24230.4 secs

     total energy              =   -9128.93501471 Ry
     Harris-Foulkes estimate   =   -9128.93500826 Ry
     estimated scf accuracy    <       0.00009136 Ry

     iteration # 17     ecut=    40.42 Ry     beta=0.07
     Davidson diagonalization with overlap
     ethr =  1.32E-08,  avg # of iterations =  1.0

     negative rho (up, down):  3.665E-03 0.000E+00

     total cpu time spent up to now is    24617.8 secs

     total energy              =   -9128.93501193 Ry
     Harris-Foulkes estimate   =   -9128.93501506 Ry
     estimated scf accuracy    <       0.00008391 Ry

     iteration # 18     ecut=    40.42 Ry     beta=0.07
     Davidson diagonalization with overlap
     ethr =  1.22E-08,  avg # of iterations =  3.0

     negative rho (up, down):  3.476E-03 0.000E+00

     total cpu time spent up to now is    25060.9 secs

     total energy              =   -9128.93502877 Ry
     Harris-Foulkes estimate   =   -9128.93502653 Ry
     estimated scf accuracy    <       0.00003149 Ry

     iteration # 19     ecut=    40.42 Ry     beta=0.07
     Davidson diagonalization with overlap
     ethr =  4.56E-09,  avg # of iterations =  3.0

     negative rho (up, down):  3.396E-03 0.000E+00

     total cpu time spent up to now is    25471.6 secs

     total energy              =   -9128.93503585 Ry
     Harris-Foulkes estimate   =   -9128.93502971 Ry
     estimated scf accuracy    <       0.00002200 Ry

     iteration # 20     ecut=    40.42 Ry     beta=0.07
     Davidson diagonalization with overlap
     ethr =  3.19E-09,  avg # of iterations =  2.1

     negative rho (up, down):  3.645E-03 0.000E+00

     total cpu time spent up to now is    25886.0 secs

     total energy              =   -9128.93504127 Ry
     Harris-Foulkes estimate   =   -9128.93503654 Ry
     estimated scf accuracy    <       0.00001907 Ry

     iteration # 21     ecut=    40.42 Ry     beta=0.07
     Davidson diagonalization with overlap
     ethr =  2.76E-09,  avg # of iterations =  3.0

     negative rho (up, down):  3.652E-03 0.000E+00

     total cpu time spent up to now is    26325.8 secs

     total energy              =   -9128.93504566 Ry
     Harris-Foulkes estimate   =   -9128.93504231 Ry
     estimated scf accuracy    <       0.00000954 Ry

     iteration # 22     ecut=    40.42 Ry     beta=0.07
     Davidson diagonalization with overlap
     ethr =  1.38E-09,  avg # of iterations =  3.0

     negative rho (up, down):  3.744E-03 0.000E+00

     total cpu time spent up to now is    26748.6 secs

     total energy              =   -9128.93504910 Ry
     Harris-Foulkes estimate   =   -9128.93504617 Ry
     estimated scf accuracy    <       0.00000667 Ry

     iteration # 23     ecut=    40.42 Ry     beta=0.07
     Davidson diagonalization with overlap
     ethr =  9.66E-10,  avg # of iterations =  2.2

     negative rho (up, down):  4.110E-03 0.000E+00

     total cpu time spent up to now is    27162.5 secs

     total energy              =   -9128.93505046 Ry
     Harris-Foulkes estimate   =   -9128.93504932 Ry
     estimated scf accuracy    <       0.00000425 Ry

     iteration # 24     ecut=    40.42 Ry     beta=0.07
     Davidson diagonalization with overlap
     ethr =  6.16E-10,  avg # of iterations =  3.0

     negative rho (up, down):  4.160E-03 0.000E+00

     total cpu time spent up to now is    27597.4 secs

     total energy              =   -9128.93505263 Ry
     Harris-Foulkes estimate   =   -9128.93505077 Ry
     estimated scf accuracy    <       0.00000164 Ry

     iteration # 25     ecut=    40.42 Ry     beta=0.07
     Davidson diagonalization with overlap
     ethr =  2.37E-10,  avg # of iterations =  2.0

     negative rho (up, down):  4.294E-03 0.000E+00

     total cpu time spent up to now is    28002.3 secs

     total energy              =   -9128.93505411 Ry
     Harris-Foulkes estimate   =   -9128.93505266 Ry
     estimated scf accuracy    <       0.00000136 Ry

     iteration # 26     ecut=    40.42 Ry     beta=0.07
     Davidson diagonalization with overlap
     ethr =  1.97E-10,  avg # of iterations =  2.4

     negative rho (up, down):  4.330E-03 0.000E+00

     total cpu time spent up to now is    28415.1 secs

     total energy              =   -9128.93505552 Ry
     Harris-Foulkes estimate   =   -9128.93505415 Ry
     estimated scf accuracy    <       0.00000101 Ry

     iteration # 27     ecut=    40.42 Ry     beta=0.07
     Davidson diagonalization with overlap
     ethr =  1.47E-10,  avg # of iterations =  1.0

     negative rho (up, down):  4.426E-03 0.000E+00

     total cpu time spent up to now is    28802.1 secs

     total energy              =   -9128.93505650 Ry
     Harris-Foulkes estimate   =   -9128.93505552 Ry
     estimated scf accuracy    <       0.00000093 Ry

     iteration # 28     ecut=    40.42 Ry     beta=0.07
     Davidson diagonalization with overlap
     ethr =  1.34E-10,  avg # of iterations =  2.0

     negative rho (up, down):  4.477E-03 0.000E+00

     total cpu time spent up to now is    29207.3 secs

     total energy              =   -9128.93505738 Ry
     Harris-Foulkes estimate   =   -9128.93505652 Ry
     estimated scf accuracy    <       0.00000079 Ry

     iteration # 29     ecut=    40.42 Ry     beta=0.07
[...]
    -4.3214  -4.3144  -4.2267  -4.2006  -4.1536  -4.1313  -4.0466  -4.0427
    -4.0329  -4.0049  -3.9946  -3.9889  -3.9869  -3.9818  -3.9078  -3.8200
    -3.8075  -3.7248  -3.7102  -3.7005  -3.6983  -3.6911  -3.6905  -3.6826
    -3.6344  -3.5838  -3.5807  -3.5734  -3.5680  -3.5669  -3.5609  -3.5576
    -3.5293  -3.4265  -3.4164  -3.3851  -3.3745  -3.2834  -3.2739  -3.2719
    -3.2691  -3.2298  -3.2244  -3.2156  -3.2135  -3.1486  -3.1404  -3.1333
    -3.1222  -3.1185  -3.1136  -3.1066  -3.0976  -3.0312  -3.0050  -2.9964
    -2.9600  -2.9467  -2.9201  -2.9191  -2.9143  -2.9121  -2.8793  -2.8667
    -2.8537  -2.8479  -2.8098  -2.7886  -2.7792  -2.7656  -2.7572  -2.6829
    -2.6602  -2.6581  -2.6506  -2.6204  -2.5858  -2.5148  -2.5125  -2.5097
    -2.5076  -2.4743  -2.3749  -2.0802  -1.9667  -1.9452  -1.6804  -0.7900
    -0.7686  -0.7579  -0.7393  -0.4565  -0.4512  -0.4448  -0.4412  -0.3337
    -0.3261   0.6829   0.7274

          k =-0.0433-0.0250 0.0000 (100004 PWs)   bands (ev):

  -106.2882-106.2278-106.2099-106.2076-106.2005-106.1978-106.1974-106.1959
  -106.1952-106.1945-106.1935-106.1925-106.1920-106.1910-106.1907-106.1901
  -106.1895-106.1892-106.1886-106.1882-106.1881-106.1874-106.1870-106.1867
  -106.1860-106.1858-106.1851-106.1849-106.1844-106.1833-106.1831-106.1728
   -57.6579 -57.6536 -57.6295 -57.6254 -57.6197 -57.6174 -57.6132 -57.6102
   -57.6087 -57.6072 -57.6065 -57.6048 -57.6017 -57.5974 -57.5924 -57.5922
   -57.5876 -57.5873 -57.5836 -57.5822 -57.5759 -57.5740 -57.5736 -57.5731
   -57.5678 -57.5633 -57.5475 -57.5435 -57.5400 -57.5357 -57.5308 -57.5299
   -57.5263 -57.5247 -57.5239 -57.5211 -57.5145 -57.5136 -57.5122 -57.5099
   -57.5081 -57.5056 -57.5045 -57.5026 -57.5022 -57.5006 -57.4996 -57.4942
   -57.4930 -57.4891 -57.4874 -57.4872 -57.4858 -57.4841 -57.4823 -57.4804
   -57.4802 -57.4795 -57.4752 -57.4724 -57.4712 -57.4671 -57.4654 -57.4577
   -57.4541 -57.4529 -57.4472 -57.4444 -57.4376 -57.4303 -57.4257 -57.4194
   -57.4180 -57.4163 -57.4092 -57.4078 -57.4028 -57.4015 -57.3952 -57.3908
   -57.3809 -57.3770 -57.3756 -57.3709 -57.3701 -57.3662 -57.3630 -57.3622
   -57.3616 -57.3591 -57.3579 -57.3564 -57.3548 -57.3546 -57.3503 -57.3468
   -23.8646 -23.6064 -22.0525 -21.7387 -21.4610 -21.2174 -21.0732 -20.7442
   -15.3680 -14.3562 -12.8283 -11.6865 -11.0156 -10.0225  -9.3960  -8.8270
    -8.8142  -8.7104  -8.6060  -8.3558  -8.2064  -7.9925  -7.9868  -7.7678
    -7.6513  -7.3779  -7.3721  -7.2097  -7.2046  -7.1837  -7.1212  -7.0492
    -7.0457  -7.0445  -7.0410  -6.8894  -6.8845  -6.8525  -6.8508  -6.8502
    -6.8485  -6.7086  -6.7055  -6.7040  -6.7030  -6.6537  -6.6450  -6.6346
    -6.5713  -6.3747  -6.3740  -6.3695  -6.3687  -6.3606  -6.3559  -6.3528
    -6.3506  -6.3094  -6.3078  -6.2732  -6.2713  -6.1271  -6.1176  -6.0911
    -6.0390  -6.0363  -6.0359  -6.0304  -6.0240  -6.0187  -5.7766  -5.6400
    -5.6385  -5.5741  -5.4931  -5.4886  -5.3677  -5.3312  -5.3255  -5.2915
    -5.2878  -5.2846  -5.2822  -5.2736  -5.2685  -5.2294  -5.2249  -5.1876
    -5.1791  -5.1788  -5.1763  -5.1744  -5.1730  -5.1197  -5.1176  -5.0524
    -5.0512  -5.0281  -5.0210  -5.0176  -5.0137  -5.0088  -5.0065  -4.7891
    -4.7812  -4.7784  -4.7768  -4.7744  -4.7739  -4.7364  -4.7323  -4.7295
    -4.7261  -4.6819  -4.6780  -4.6623  -4.6352  -4.6169  -4.4957  -4.4912
    -4.4334  -4.4291  -4.4102  -4.4054  -4.3565  -4.3556  -4.3520  -4.3479
    -4.3198  -4.3159  -4.2286  -4.1962  -4.1546  -4.1356  -4.0495  -4.0416
    -4.0298  -3.9980  -3.9944  -3.9920  -3.9871  -3.9853  -3.9191  -3.8189
    -3.8003  -3.7258  -3.7061  -3.7029  -3.6945  -3.6898  -3.6877  -3.6801
    -3.6503  -3.5871  -3.5793  -3.5734  -3.5702  -3.5652  -3.5601  -3.5451
    -3.5307  -3.4250  -3.4152  -3.3849  -3.3814  -3.2817  -3.2763  -3.2739
    -3.2689  -3.2234  -3.2213  -3.2185  -3.2171  -3.1462  -3.1436  -3.1320
    -3.1222  -3.1195  -3.1174  -3.1032  -3.0982  -3.0302  -3.0020  -2.9967
    -2.9556  -2.9478  -2.9243  -2.9192  -2.9147  -2.9120  -2.8744  -2.8709
    -2.8602  -2.8514  -2.8097  -2.7848  -2.7823  -2.7632  -2.7604  -2.6693
    -2.6634  -2.6580  -2.6551  -2.6242  -2.5906  -2.5134  -2.5118  -2.5097
    -2.5078  -2.4603  -2.3759  -2.0745  -1.9720  -1.9511  -1.6807  -0.7996
    -0.7632  -0.7588  -0.7350  -0.4528  -0.4493  -0.4488  -0.4440  -0.3398
    -0.3182   0.6873   0.7231

          k =-0.0217 0.0375 0.0000 (100080 PWs)   bands (ev):

  -106.2882-106.2278-106.2099-106.2076-106.2005-106.1978-106.1973-106.1958
  -106.1952-106.1945-106.1937-106.1925-106.1917-106.1911-106.1906-106.1901
  -106.1896-106.1891-106.1890-106.1881-106.1879-106.1875-106.1871-106.1866
  -106.1860-106.1858-106.1851-106.1849-106.1844-106.1833-106.1830-106.1728
   -57.6585 -57.6543 -57.6280 -57.6225 -57.6178 -57.6167 -57.6139 -57.6114
   -57.6090 -57.6073 -57.6052 -57.6022 -57.6010 -57.5996 -57.5959 -57.5949
   -57.5934 -57.5879 -57.5853 -57.5838 -57.5778 -57.5764 -57.5709 -57.5650
   -57.5574 -57.5535 -57.5508 -57.5491 -57.5476 -57.5442 -57.5353 -57.5270
   -57.5242 -57.5216 -57.5196 -57.5184 -57.5159 -57.5140 -57.5115 -57.5102
   -57.5077 -57.5051 -57.5048 -57.5035 -57.4988 -57.4979 -57.4956 -57.4943
   -57.4938 -57.4929 -57.4907 -57.4896 -57.4871 -57.4852 -57.4822 -57.4810
   -57.4784 -57.4767 -57.4759 -57.4747 -57.4730 -57.4680 -57.4591 -57.4584
   -57.4562 -57.4518 -57.4493 -57.4432 -57.4348 -57.4327 -57.4250 -57.4206
   -57.4170 -57.4151 -57.4102 -57.4095 -57.4038 -57.3989 -57.3956 -57.3895
   -57.3820 -57.3785 -57.3745 -57.3710 -57.3690 -57.3658 -57.3643 -57.3625
   -57.3601 -57.3593 -57.3584 -57.3572 -57.3550 -57.3535 -57.3504 -57.3469
   -23.8646 -23.6064 -22.0525 -21.7387 -21.4610 -21.2174 -21.0733 -20.7442
   -15.3680 -14.3563 -12.8283 -11.6865 -11.0157 -10.0226  -9.3960  -8.9304
    -8.7226  -8.6080  -8.4875  -8.4831  -8.3531  -8.2028  -7.7710  -7.6519
    -7.4779  -7.4444  -7.4411  -7.1894  -7.1720  -7.1699  -7.1212  -7.0963
    -7.0919  -7.0796  -7.0763  -6.9681  -6.8948  -6.8911  -6.8781  -6.8759
    -6.8245  -6.7808  -6.7156  -6.7133  -6.6389  -6.5916  -6.5515  -6.5429
    -6.5239  -6.5178  -6.4192  -6.4177  -6.3976  -6.3736  -6.3681  -6.3071
    -6.3007  -6.2481  -6.2446  -6.2300  -6.2285  -6.1939  -6.1909  -6.1819
    -6.0847  -6.0383  -5.9517  -5.9488  -5.9323  -5.8210  -5.8169  -5.7763
    -5.5755  -5.5349  -5.5319  -5.4870  -5.4534  -5.4525  -5.3718  -5.3373
    -5.3297  -5.3128  -5.3084  -5.3012  -5.2972  -5.2256  -5.2216  -5.2092
    -5.2036  -5.1969  -5.1917  -5.1902  -5.1629  -5.1608  -5.1267  -5.1212
    -5.1011  -5.0983  -5.0533  -4.9737  -4.9606  -4.9589  -4.9127  -4.8376
    -4.8220  -4.8195  -4.7568  -4.7353  -4.7139  -4.7023  -4.6979  -4.6577
    -4.6434  -4.5701  -4.5679  -4.5361  -4.5326  -4.5127  -4.5112  -4.4873
    -4.4863  -4.4506  -4.4282  -4.4233  -4.3471  -4.3459  -4.3405  -4.3357
    -4.3096  -4.3022  -4.2316  -4.1944  -4.1751  -4.1553  -4.0646  -4.0492
    -4.0412  -4.0381  -4.0338  -3.9829  -3.9359  -3.9208  -3.9144  -3.8725
    -3.8430  -3.8326  -3.8172  -3.7229  -3.7178  -3.6521  -3.6421  -3.6344
    -3.6137  -3.5762  -3.5726  -3.5658  -3.5320  -3.5222  -3.5196  -3.5087
    -3.4902  -3.4470  -3.4443  -3.4396  -3.4254  -3.4114  -3.4094  -3.3494
    -3.2442  -3.2329  -3.2169  -3.2143  -3.2039  -3.2012  -3.1719  -3.1703
    -3.1440  -3.1306  -3.1243  -3.0976  -3.0939  -3.0359  -3.0189  -3.0160
    -3.0052  -3.0000  -2.9761  -2.9385  -2.9330  -2.9317  -2.9268  -2.8587
    -2.8571  -2.8236  -2.8125  -2.8092  -2.8048  -2.7693  -2.7230  -2.7213
    -2.6688  -2.6491  -2.6459  -2.6265  -2.6230  -2.4892  -2.4706  -2.4316
    -2.3349  -2.2851  -2.0501  -1.7170  -1.7117  -1.6833  -1.6232  -1.6214
    -1.4973  -1.4665  -0.7861  -0.6632  -0.6543   0.2563   0.2818   0.3913
     0.4204   0.5027   0.8089

          k = 0.0433 0.0000 0.0000 (100080 PWs)   bands (ev):

  -106.2882-106.2278-106.2099-106.2076-106.2005-106.1978-106.1973-106.1960
  -106.1952-106.1945-106.1935-106.1926-106.1918-106.1911-106.1906-106.1901
  -106.1895-106.1893-106.1889-106.1881-106.1879-106.1875-106.1871-106.1866
  -106.1860-106.1858-106.1851-106.1849-106.1844-106.1833-106.1830-106.1728
   -57.6576 -57.6551 -57.6278 -57.6230 -57.6181 -57.6165 -57.6141 -57.6109
   -57.6094 -57.6074 -57.6052 -57.6026 -57.6011 -57.5983 -57.5971 -57.5945
   -57.5936 -57.5879 -57.5851 -57.5840 -57.5768 -57.5753 -57.5706 -57.5656
   -57.5566 -57.5545 -57.5511 -57.5490 -57.5468 -57.5440 -57.5369 -57.5266
   -57.5251 -57.5225 -57.5195 -57.5182 -57.5157 -57.5129 -57.5111 -57.5098
   -57.5086 -57.5054 -57.5045 -57.5040 -57.4995 -57.4974 -57.4957 -57.4947
   -57.4935 -57.4923 -57.4899 -57.4894 -57.4868 -57.4850 -57.4828 -57.4810
   -57.4794 -57.4767 -57.4755 -57.4744 -57.4731 -57.4682 -57.4590 -57.4585
   -57.4563 -57.4519 -57.4491 -57.4438 -57.4347 -57.4307 -57.4276 -57.4210
   -57.4164 -57.4145 -57.4103 -57.4090 -57.4040 -57.3991 -57.3957 -57.3902
   -57.3805 -57.3789 -57.3750 -57.3713 -57.3692 -57.3658 -57.3631 -57.3619
   -57.3613 -57.3597 -57.3584 -57.3570 -57.3548 -57.3535 -57.3505 -57.3469
   -23.8646 -23.6064 -22.0525 -21.7387 -21.4610 -21.2174 -21.0732 -20.7442
   -15.3680 -14.3562 -12.8283 -11.6865 -11.0157 -10.0226  -9.3959  -8.9308
    -8.7218  -8.6086  -8.4883  -8.4825  -8.3533  -8.2029  -7.7705  -7.6518
    -7.4775  -7.4468  -7.4397  -7.1874  -7.1717  -7.1698  -7.1205  -7.0966
    -7.0941  -7.0802  -7.0761  -6.9689  -6.8932  -6.8910  -6.8791  -6.8748
    -6.8244  -6.7812  -6.7163  -6.7131  -6.6382  -6.5897  -6.5519  -6.5460
    -6.5234  -6.5178  -6.4196  -6.4169  -6.3978  -6.3722  -6.3689  -6.3093
    -6.2996  -6.2493  -6.2446  -6.2324  -6.2278  -6.1911  -6.1897  -6.1822
    -6.0836  -6.0404  -5.9520  -5.9488  -5.9324  -5.8226  -5.8174  -5.7746
    -5.5735  -5.5348  -5.5308  -5.4892  -5.4533  -5.4525  -5.3700  -5.3368
    -5.3298  -5.3114  -5.3092  -5.3025  -5.2974  -5.2279  -5.2198  -5.2079
    -5.2045  -5.1947  -5.1930  -5.1911  -5.1630  -5.1606  -5.1270  -5.1213
    -5.1019  -5.0978  -5.0541  -4.9746  -4.9613  -4.9587  -4.9124  -4.8375
    -4.8234  -4.8172  -4.7573  -4.7355  -4.7149  -4.7026  -4.6975  -4.6594
    -4.6394  -4.5699  -4.5672  -4.5371  -4.5320  -4.5128  -4.5102  -4.4872
    -4.4862  -4.4509  -4.4293  -4.4235  -4.3482  -4.3429  -4.3411  -4.3361
    -4.3081  -4.3032  -4.2315  -4.1980  -4.1733  -4.1521  -4.0676  -4.0490
    -4.0418  -4.0366  -4.0333  -3.9830  -3.9383  -3.9209  -3.9130  -3.8727
    -3.8474  -3.8341  -3.8140  -3.7218  -3.7177  -3.6526  -3.6401  -3.6234
    -3.6215  -3.5779  -3.5726  -3.5680  -3.5295  -3.5242  -3.5168  -3.5092
    -3.4930  -3.4441  -3.4415  -3.4395  -3.4314  -3.4103  -3.4083  -3.3495
    -3.2469  -3.2319  -3.2178  -3.2133  -3.2037  -3.2013  -3.1725  -3.1695
    -3.1440  -3.1314  -3.1246  -3.0987  -3.0930  -3.0337  -3.0234  -3.0149
    -3.0058  -2.9986  -2.9764  -2.9368  -2.9340  -2.9322  -2.9269  -2.8597
    -2.8566  -2.8224  -2.8119  -2.8103  -2.8033  -2.7693  -2.7234  -2.7217
    -2.6745  -2.6494  -2.6451  -2.6272  -2.6233  -2.4890  -2.4695  -2.4227
    -2.3330  -2.2912  -2.0499  -1.7147  -1.7132  -1.6838  -1.6233  -1.6213
    -1.4908  -1.4746  -0.7876  -0.6635  -0.6524   0.2603   0.2805   0.3902
     0.4164   0.5055   0.8101

     the Fermi energy is    -1.1485 ev

!    total energy              =   -9129.57031221 Ry
     Harris-Foulkes estimate   =   -9129.57031063 Ry
     estimated scf accuracy    <       0.00000037 Ry

     The total energy is the sum of the following terms:

     one-electron contribution =  -83155.53411302 Ry
     hartree contribution      =   41417.34515634 Ry
     xc contribution           =    -897.65191803 Ry
     ewald contribution        =   33506.28485628 Ry
     smearing contrib. (-TS)   =      -0.01429379 Ry

     convergence has been achieved in  17 iterations

     Forces acting on atoms (Ry/au):


     negative rho (up, down):  5.032E-03 0.000E+00
     atom    1 type  1   force =    -0.00011470   -0.00000826   -0.02360352
     atom    2 type  1   force =    -0.00018500    0.00009064    0.02375727
     atom    3 type  1   force =     0.00000987   -0.00012508   -0.02376536
     atom    4 type  1   force =    -0.00000162   -0.00004317    0.02381818
     atom    5 type  1   force =    -0.00015492   -0.00004364   -0.02478290
     atom    6 type  1   force =     0.00014485   -0.00012786    0.02407347
     atom    7 type  1   force =    -0.00007461    0.00003822   -0.02503204
     atom    8 type  1   force =    -0.00011266   -0.00002129    0.02420292
     atom    9 type  1   force =     0.00000631    0.00015467   -0.02412147
     atom   10 type  1   force =    -0.00048489   -0.00047475    0.02169126
     atom   11 type  1   force =     0.00005497   -0.00003040   -0.02411605
     atom   12 type  1   force =    -0.00043977    0.00012964    0.02347573
     atom   13 type  1   force =     0.00009281    0.00003666   -0.02372610
     atom   14 type  1   force =     0.00005748   -0.00001888    0.02380868
     atom   15 type  1   force =    -0.00000337   -0.00008009   -0.02406847
     atom   16 type  1   force =     0.00002648    0.00011328    0.02440205
     atom   17 type  1   force =     0.00009032   -0.00002014   -0.02451915
     atom   18 type  1   force =     0.00001918   -0.00013178    0.02417141
     atom   19 type  1   force =    -0.00023170    0.00001246   -0.02377643
     atom   20 type  1   force =    -0.00007151   -0.00196296    0.02171939
     atom   21 type  1   force =    -0.00006207   -0.00002883   -0.02372380
     atom   22 type  1   force =    -0.00289811    0.00116083    0.01935420
     atom   23 type  1   force =    -0.00001173   -0.00005885   -0.02370270
     atom   24 type  1   force =    -0.00008813    0.00015079    0.02378673
     atom   25 type  1   force =    -0.00002028    0.00010719   -0.02392337
     atom   26 type  1   force =     0.00002018   -0.00009565    0.02379667
     atom   27 type  1   force =     0.00016642    0.00007563   -0.02372499
     atom   28 type  1   force =     0.00038191   -0.00014671    0.02364565
     atom   29 type  1   force =     0.00011362   -0.00001719   -0.02446906
     atom   30 type  1   force =     0.00369284    0.00303741    0.01785583
     atom   31 type  1   force =     0.00008443    0.00009621   -0.02371895
     atom   32 type  1   force =     0.00023069    0.00024482    0.02419858
     atom   33 type  2   force =    -0.03831459   -0.02858063   -0.01348635
     atom   34 type  2   force =     0.00333955   -0.00247060   -0.00385777
     atom   35 type  2   force =    -0.02556156   -0.03617247   -0.03483956
     atom   36 type  2   force =     0.00321119    0.00728882   -0.01994154
     atom   37 type  2   force =     0.01190296   -0.00754269   -0.01636310
     atom   38 type  2   force =     0.00588145    0.01958026   -0.00193795
     atom   39 type  2   force =    -0.00310868    0.00029924   -0.00369016
     atom   40 type  2   force =    -0.00013060    0.00063717   -0.00126288
     atom   41 type  3   force =     0.00344398    0.00813964   -0.00456362
     atom   42 type  3   force =     0.00172343   -0.01511943    0.00956097
     atom   43 type  3   force =     0.01919208    0.00739390    0.03013252
     atom   44 type  3   force =    -0.01234840   -0.01089844    0.01313001
     atom   45 type  3   force =    -0.01419396    0.00597112    0.02035007
     atom   46 type  3   force =     0.00621781    0.00628342   -0.00763362
     atom   47 type  4   force =     0.00484012   -0.01339633   -0.00596570
     atom   48 type  4   force =    -0.00317632    0.01266688   -0.00225450
     atom   49 type  4   force =     0.00481516   -0.00844391   -0.00481517
     atom   50 type  4   force =     0.00525530    0.00825922    0.00459293
     atom   51 type  4   force =     0.02094048    0.02799138    0.00792582
     atom   52 type  4   force =    -0.00380454    0.00041675    0.00107071
     atom   53 type  4   force =     0.01977087    0.03655430    0.02828259
     atom   54 type  4   force =     0.00604235   -0.01093536    0.00927354
     atom   55 type  4   force =    -0.00404454    0.01008153    0.00082550
     atom   56 type  4   force =    -0.01213083   -0.02001667    0.01248357

     Total force =     0.182688     Total SCF correction =     0.002388
 !ASE

     Writing output data file calc.save
     Check: negative starting charge=   -0.002256
     NEW-OLD atomic charge density approx. for the potential
     Check: negative starting charge=   -0.002257

     negative rho (up, down):  5.251E-03 0.000E+00

     total cpu time spent up to now is    83737.1 secs

     per-process dynamical memory:   876.8 Mb

     Self-consistent Calculation

     iteration #  1     ecut=    40.42 Ry     beta=0.15
     Davidson diagonalization with overlap
     ethr =  6.29E-11,  avg # of iterations = 10.0

     negative rho (up, down):  4.969E-03 0.000E+00

     total cpu time spent up to now is    84514.2 secs

     total energy              =   -9129.57514643 Ry
     Harris-Foulkes estimate   =   -9129.57554897 Ry
     estimated scf accuracy    <       0.00796620 Ry

     iteration #  2     ecut=    40.42 Ry     beta=0.15
     Davidson diagonalization with overlap
     ethr =  1.15E-06,  avg # of iterations =  1.0

     negative rho (up, down):  6.212E-03 0.000E+00

     total cpu time spent up to now is    84761.9 secs

     total energy              =   -9129.57314947 Ry
     Harris-Foulkes estimate   =   -9129.57516259 Ry
     estimated scf accuracy    <       0.00610929 Ry

     iteration #  3     ecut=    40.42 Ry     beta=0.15
     Davidson diagonalization with overlap
     ethr =  8.85E-07,  avg # of iterations =  3.0

     negative rho (up, down):  5.527E-03 0.000E+00

     total cpu time spent up to now is    85043.5 secs

     total energy              =   -9129.57394707 Ry
     Harris-Foulkes estimate   =   -9129.57395622 Ry
     estimated scf accuracy    <       0.00036985 Ry

     iteration #  4     ecut=    40.42 Ry     beta=0.15
     Davidson diagonalization with overlap
     ethr =  5.36E-08,  avg # of iterations =  2.0

     negative rho (up, down):  5.015E-03 0.000E+00

     total cpu time spent up to now is    85298.7 secs

     total energy              =   -9129.57388281 Ry
     Harris-Foulkes estimate   =   -9129.57395410 Ry
     estimated scf accuracy    <       0.00026554 Ry

     iteration #  5     ecut=    40.42 Ry     beta=0.15
     Davidson diagonalization with overlap
     ethr =  3.85E-08,  avg # of iterations =  3.0

     negative rho (up, down):  4.728E-03 0.000E+00

     total cpu time spent up to now is    85575.4 secs

     total energy              =   -9129.57392518 Ry
     Harris-Foulkes estimate   =   -9129.57391736 Ry
     estimated scf accuracy    <       0.00005886 Ry

     iteration #  6     ecut=    40.42 Ry     beta=0.15
     Davidson diagonalization with overlap
     ethr =  8.53E-09,  avg # of iterations =  1.8

     negative rho (up, down):  4.294E-03 0.000E+00

     total cpu time spent up to now is    85824.1 secs

     total energy              =   -9129.57391887 Ry
     Harris-Foulkes estimate   =   -9129.57392557 Ry
     estimated scf accuracy    <       0.00004694 Ry

     iteration #  7     ecut=    40.42 Ry     beta=0.15
     Davidson diagonalization with overlap
     ethr =  6.80E-09,  avg # of iterations =  3.0

     negative rho (up, down):  4.213E-03 0.000E+00

     total cpu time spent up to now is    86104.1 secs

     total energy              =   -9129.57392887 Ry
     Harris-Foulkes estimate   =   -9129.57392454 Ry
     estimated scf accuracy    <       0.00001275 Ry

     iteration #  8     ecut=    40.42 Ry     beta=0.15
     Davidson diagonalization with overlap
     ethr =  1.85E-09,  avg # of iterations =  1.0

     negative rho (up, down):  4.284E-03 0.000E+00

     total cpu time spent up to now is    86353.4 secs

     total energy              =   -9129.57392761 Ry
     Harris-Foulkes estimate   =   -9129.57392894 Ry
     estimated scf accuracy    <       0.00001097 Ry

     iteration #  9     ecut=    40.42 Ry     beta=0.15
     Davidson diagonalization with overlap
